
     Program PWSCF v.7.1 starts on 15May2024 at 22:41:21 

     This program is part of the open-source Quantum ESPRESSO suite
     for quantum simulation of materials; please cite
         "P. Giannozzi et al., J. Phys.:Condens. Matter 21 395502 (2009);
         "P. Giannozzi et al., J. Phys.:Condens. Matter 29 465901 (2017);
         "P. Giannozzi et al., J. Chem. Phys. 152 154105 (2020);
          URL http://www.quantum-espresso.org", 
     in publications or presentations arising from this work. More details at
     http://www.quantum-espresso.org/quote

     Parallel version (MPI & OpenMP), running on      10 processor cores
     Number of MPI processes:                10
     Threads/MPI process:                     1

     MPI processes distributed on     1 nodes
     14560 MiB available memory on the printing compute node when the environment starts

     Waiting for input...
     Reading input from standard input

     Current dimensions of program PWSCF are:
     Max number of different atomic species (ntypx) = 10
     Max number of k-points (npk) =  40000
     Max angular momentum in pseudopotentials (lmaxx) =  4
     file Ce.pbe-spdn-kjpaw_psl.1.0.0.UPF: wavefunction(s)  5D renormalized
     Message from routine setup:
     using ibrav=0 with symmetry is DISCOURAGED, use correct ibrav instead

     R & G space division:  proc/nbgrp/npool/nimage =      10
     Subspace diagonalization in iterative solution of the eigenvalue problem:
     a serial algorithm will be used


     Parallelization info
     --------------------
     sticks:   dense  smooth     PW     G-vecs:    dense   smooth      PW
     Min          59      48     14                 1081      810     136
     Max          60      49     15                 1084      813     137
     Sum         593     489    145                10827     8121    1365

     Using Slab Decomposition



     bravais-lattice index     =            0
     lattice parameter (alat)  =       6.4265  a.u.
     unit-cell volume          =     265.4168 (a.u.)^3
     number of atoms/cell      =            1
     number of atomic types    =            1
     number of electrons       =        11.00
     number of Kohn-Sham states=           26
     kinetic-energy cutoff     =      37.0000  Ry
     charge density cutoff     =     179.0000  Ry
     scf convergence threshold =      7.3E-05
     mixing beta               =       0.7000
     number of iterations used =            8  plain     mixing
     Exchange-correlation= SLA  PW   PBX  PBC
                           (   1   4   3   4   0   0   0)

     celldm(1)=   6.426524  celldm(2)=   0.000000  celldm(3)=   0.000000
     celldm(4)=   0.000000  celldm(5)=   0.000000  celldm(6)=   0.000000

     crystal axes: (cart. coord. in units of alat)
               a(1) = (   1.000000   0.000000   0.000000 )  
               a(2) = (   0.000000   1.000000   0.000000 )  
               a(3) = (   0.000000   0.000000   1.000000 )  

     reciprocal axes: (cart. coord. in units 2 pi/alat)
               b(1) = (  1.000000  0.000000  0.000000 )  
               b(2) = (  0.000000  1.000000  0.000000 )  
               b(3) = (  0.000000  0.000000  1.000000 )  


     PseudoPot. # 1 for Ce read from file:
     ./../../../../pseudo/psl100_PBE/Ce.pbe-spdn-kjpaw_psl.1.0.0.UPF
     MD5 check sum: 1a25380276e46fcecd5a173acdad072c
     Pseudo is Projector augmented-wave + core cor, Zval = 11.0
     Generated using 'atomic' code by A. Dal Corso  v.7.2
     Shape of augmentation charge: PSQ
     Using radial grid of 1255 points,  6 beta functions with: 
                l(1) =   0
                l(2) =   0
                l(3) =   1
                l(4) =   1
                l(5) =   2
                l(6) =   2
     Q(r) pseudized with 0 coefficients 


     atomic species   valence    mass     pseudopotential
        Ce            11.00   140.11600     Ce( 1.00)

     48 Sym. Ops., with inversion, found



   Cartesian axes

     site n.     atom                  positions (alat units)
         1           Ce  tau(   1) = (   0.0000000   0.0000000   0.0000000  )

     number of k points=    35  Methfessel-Paxton smearing, width (Ry)=  0.0200
                       cart. coord. in units 2pi/alat
        k(    1) = (   0.0000000   0.0000000   0.0000000), wk =   0.0027435
        k(    2) = (   0.0000000   0.0000000   0.1111111), wk =   0.0164609
        k(    3) = (   0.0000000   0.0000000   0.2222222), wk =   0.0164609
        k(    4) = (   0.0000000   0.0000000   0.3333333), wk =   0.0164609
        k(    5) = (   0.0000000   0.0000000   0.4444444), wk =   0.0164609
        k(    6) = (   0.0000000   0.1111111   0.1111111), wk =   0.0329218
        k(    7) = (   0.0000000   0.1111111   0.2222222), wk =   0.0658436
        k(    8) = (   0.0000000   0.1111111   0.3333333), wk =   0.0658436
        k(    9) = (   0.0000000   0.1111111   0.4444444), wk =   0.0658436
        k(   10) = (   0.0000000   0.2222222   0.2222222), wk =   0.0329218
        k(   11) = (   0.0000000   0.2222222   0.3333333), wk =   0.0658436
        k(   12) = (   0.0000000   0.2222222   0.4444444), wk =   0.0658436
        k(   13) = (   0.0000000   0.3333333   0.3333333), wk =   0.0329218
        k(   14) = (   0.0000000   0.3333333   0.4444444), wk =   0.0658436
        k(   15) = (   0.0000000   0.4444444   0.4444444), wk =   0.0329218
        k(   16) = (   0.1111111   0.1111111   0.1111111), wk =   0.0219479
        k(   17) = (   0.1111111   0.1111111   0.2222222), wk =   0.0658436
        k(   18) = (   0.1111111   0.1111111   0.3333333), wk =   0.0658436
        k(   19) = (   0.1111111   0.1111111   0.4444444), wk =   0.0658436
        k(   20) = (   0.1111111   0.2222222   0.2222222), wk =   0.0658436
        k(   21) = (   0.1111111   0.2222222   0.3333333), wk =   0.1316872
        k(   22) = (   0.1111111   0.2222222   0.4444444), wk =   0.1316872
        k(   23) = (   0.1111111   0.3333333   0.3333333), wk =   0.0658436
        k(   24) = (   0.1111111   0.3333333   0.4444444), wk =   0.1316872
        k(   25) = (   0.1111111   0.4444444   0.4444444), wk =   0.0658436
        k(   26) = (   0.2222222   0.2222222   0.2222222), wk =   0.0219479
        k(   27) = (   0.2222222   0.2222222   0.3333333), wk =   0.0658436
        k(   28) = (   0.2222222   0.2222222   0.4444444), wk =   0.0658436
        k(   29) = (   0.2222222   0.3333333   0.3333333), wk =   0.0658436
        k(   30) = (   0.2222222   0.3333333   0.4444444), wk =   0.1316872
        k(   31) = (   0.2222222   0.4444444   0.4444444), wk =   0.0658436
        k(   32) = (   0.3333333   0.3333333   0.3333333), wk =   0.0219479
        k(   33) = (   0.3333333   0.3333333   0.4444444), wk =   0.0658436
        k(   34) = (   0.3333333   0.4444444   0.4444444), wk =   0.0658436
        k(   35) = (   0.4444444   0.4444444   0.4444444), wk =   0.0219479

     Dense  grid:    10827 G-vectors     FFT dimensions: (  27,  27,  27)

     Smooth grid:     8121 G-vectors     FFT dimensions: (  25,  25,  25)

     Estimated max dynamical RAM per process >       6.22 MB

     Estimated total dynamical RAM >      62.19 MB

     Initial potential from superposition of free atoms

     starting charge      10.9735, renormalised to      11.0000
     Starting wfcs are   13 randomized atomic wfcs +   13 random wfcs
     Checking if some PAW data can be deallocated... 

     total cpu time spent up to now is        0.5 secs

     per-process dynamical memory:    13.7 Mb

     Self-consistent Calculation

     iteration #  1     ecut=    37.00 Ry     beta= 0.70
     Davidson diagonalization with overlap
     ethr =  1.00E-02,  avg # of iterations =  6.9

     Threshold (ethr) on eigenvalues was too large:
     Diagonalizing with lowered threshold

     Davidson diagonalization with overlap
     ethr =  4.15E-05,  avg # of iterations =  4.3

     total cpu time spent up to now is        1.4 secs

     total energy              =    -471.69918683 Ry
     estimated scf accuracy    <       0.00473903 Ry

     iteration #  2     ecut=    37.00 Ry     beta= 0.70
     Davidson diagonalization with overlap
     ethr =  4.31E-05,  avg # of iterations =  1.6

     total cpu time spent up to now is        1.8 secs

     total energy              =    -471.70025565 Ry
     estimated scf accuracy    <       0.00029618 Ry

     iteration #  3     ecut=    37.00 Ry     beta= 0.70
     Davidson diagonalization with overlap
     ethr =  2.69E-06,  avg # of iterations =  3.1

     total cpu time spent up to now is        2.1 secs

     End of self-consistent calculation

          k = 0.0000 0.0000 0.0000 (  1021 PWs)   bands (ev):

   -25.1690  -7.2586  -7.2586  -7.2586   6.7020   8.8593   8.8593  15.6101
    15.6101  15.6101  19.7204  19.7204  19.7204  23.9116  24.0232  24.0232
    24.0232  25.0955  25.0955  31.7423  36.1938  36.1938  36.1938  37.0692
    37.0692  37.0693

          k = 0.0000 0.0000 0.1111 (  1013 PWs)   bands (ev):

   -25.1521  -7.4395  -7.2432  -7.2432   6.9590   8.9332   9.1961  15.0028
    15.0028  15.6497  18.7621  20.3557  20.3557  22.1631  24.4702  24.4702
    24.5097  25.9245  27.2998  30.9117  34.1865  34.1866  35.0029  35.9269
    37.4036  38.9348

          k = 0.0000 0.0000 0.2222 (  1000 PWs)   bands (ev):

   -25.1087  -7.8698  -7.2039  -7.2039   7.5489   9.1321  10.1328  13.9318
    13.9318  15.7530  17.3811  20.2649  21.4059  21.4059  24.8170  25.8306
    25.8306  28.3058  29.5540  30.2323  30.9553  32.2579  32.2579  34.0549
    39.4115  39.4772

          k = 0.0000 0.0000 0.3333 (  1000 PWs)   bands (ev):

   -25.0587  -8.3195  -7.1586  -7.1586   8.2267   9.3840  11.0748  13.0533
    13.0533  15.8762  16.9776  18.8595  22.2292  22.2292  24.2709  27.5506
    27.5506  27.9731  28.4700  30.1763  31.3431  31.3431  33.3441  33.7958
    39.3909  39.4846

          k = 0.0000 0.0000 0.4444 (  1016 PWs)   bands (ev):

   -25.0255  -8.5945  -7.1287  -7.1287   8.7800   9.5671  11.2457  12.5788
    12.5788  15.9602  18.0954  18.2219  21.9477  22.7220  22.7220  27.4642
    27.8846  28.0672  28.0672  29.8866  32.6961  32.6961  36.2543  36.5875
    36.8335  36.8336

          k = 0.0000 0.1111 0.1111 (  1007 PWs)   bands (ev):

   -25.1352  -7.4328  -7.4129  -7.2279   7.2186   9.1418   9.3883  14.3498
    14.9172  15.2047  19.3542  19.3914  21.0297  22.2036  23.4059  24.8432
    25.6575  27.0056  28.3623  29.8606  32.4610  34.5068  34.9297  36.0098
    36.6196  37.5647

          k = 0.0000 0.1111 0.2222 (  1002 PWs)   bands (ev):

   -25.0920  -7.8508  -7.3797  -7.1889   7.8016   9.3907  10.2396  13.2999
    13.9765  15.2218  17.9284  20.2788  20.8096  22.1858  24.6466  26.0377
    26.3276  28.3725  28.8805  30.6189  30.9320  31.2180  33.7309  35.6936
    36.0630  38.6376

          k = 0.0000 0.1111 0.3333 (  1011 PWs)   bands (ev):

   -25.0421  -8.2977  -7.3309  -7.1439   8.4642   9.6537  10.8629  12.8978
    13.1145  15.3620  17.2908  19.4785  21.0307  23.0704  25.1244  26.4960
    26.6134  28.4243  28.5813  29.8505  31.8024  32.6019  33.3296  35.2797
    36.2848  39.3299

          k = 0.0000 0.1111 0.4444 (  1010 PWs)   bands (ev):

   -25.0091  -8.5712  -7.2985  -7.1142   9.0385   9.8807  10.5257  12.6450
    13.0564  15.4619  18.2095  18.7659  21.4141  22.5084  23.6157  25.9577
    26.6330  28.6520  29.9999  31.1407  32.3563  32.9645  34.5806  35.5591
    37.0100  37.5282

          k = 0.0000 0.2222 0.2222 (  1003 PWs)   bands (ev):

   -25.0492  -7.8219  -7.7792  -7.1505   8.3115   9.8093  10.8332  12.4239
    13.9577  14.3757  18.4137  19.0320  21.5663  23.6178  24.1292  26.8457
    26.8858  27.3902  28.6837  29.7093  31.5052  32.0224  33.9698  35.5168
    37.8017  38.5708

          k = 0.0000 0.2222 0.3333 (  1007 PWs)   bands (ev):

   -24.9998  -8.2419  -7.7423  -7.1063   8.8055   9.7893  11.2650  12.8400
    13.2746  14.3847  17.6828  19.5273  20.9854  24.2792  24.9530  25.9861
    26.1940  27.2885  28.8480  30.3901  31.4603  33.5916  34.9000  36.1553
    36.7464  38.8049

          k = 0.0000 0.2222 0.4444 (  1014 PWs)   bands (ev):

   -24.9670  -8.5113  -7.7048  -7.0772   9.1654   9.5797  11.2218  12.8222
    13.6431  14.4980  18.0774  20.0958  20.5696  22.4057  24.1299  25.3221
    25.8889  29.4337  30.9836  31.3947  31.7020  33.3153  33.9275  35.3348
    37.6048  37.9353

          k = 0.0000 0.3333 0.3333 (  1009 PWs)   bands (ev):

   -24.9509  -8.1910  -8.1607  -7.0630   8.6780   9.6657  12.8021  13.0636
    13.3894  13.6347  17.6243  19.1031  21.6913  23.4844  24.8438  25.4941
    26.8194  27.7274  27.9060  29.5655  34.1187  34.3397  35.1411  36.6918
    38.3253  38.5156

          k = 0.0000 0.3333 0.4444 (  1017 PWs)   bands (ev):

   -24.9185  -8.4417  -8.1323  -7.0345   8.3500   9.8497  13.0431  13.0591
    13.6666  14.1287  17.6610  19.9931  21.3224  22.2694  22.8584  25.5887
    26.5183  28.7289  29.1802  32.0235  32.2227  34.7107  35.0975  37.1470
    37.7270  38.4665

          k = 0.0000 0.4444 0.4444 (  1012 PWs)   bands (ev):

   -24.8863  -8.3974  -8.3929  -7.0063   7.8638  10.0961  13.1884  13.2228
    14.4309  14.4550  17.5588  20.5516  20.9634  22.1558  22.2774  23.5453
    26.9793  29.2225  30.9013  31.7346  32.5639  35.1325  35.7049  35.7118
    37.8887  37.9979

          k = 0.1111 0.1111 0.1111 (  1000 PWs)   bands (ev):

   -25.1183  -7.4257  -7.3965  -7.3965   7.4842   9.4591   9.4591  14.2088
    14.5295  14.5295  19.8651  20.1340  20.1340  22.8497  22.8497  24.4704
    26.6405  28.6016  28.6027  28.6027  33.3225  34.5064  34.5064  34.6974
    34.6974  37.7391

          k = 0.1111 0.1111 0.2222 (  1002 PWs)   bands (ev):

   -25.0753  -7.8320  -7.3721  -7.3549   8.0660   9.6529  10.3264  13.3623
    13.3662  14.6071  18.6089  20.7505  20.9766  21.8245  24.4670  25.4840
    26.8609  27.6376  29.7451  30.9723  31.4825  32.1541  32.7623  34.9753
    36.7215  37.4047

          k = 0.1111 0.1111 0.3333 (  1019 PWs)   bands (ev):

   -25.0256  -8.2761  -7.3232  -7.3070   8.7195   9.9097  10.7787  12.4025
    13.3866  14.7811  17.8006  19.9272  21.3376  22.6039  24.8736  25.7301
    27.3153  27.6444  29.2983  30.9473  31.1370  33.0948  33.3969  36.1476
    36.3382  37.4489

          k = 0.1111 0.1111 0.4444 (  1007 PWs)   bands (ev):

   -24.9927  -8.5481  -7.2907  -7.2752   9.3637  10.1158  10.3037  11.8544
    13.9882  14.9075  18.3820  19.2486  21.5182  22.9635  23.1356  24.2599
    28.3078  28.9362  29.7694  31.5538  31.9310  33.6784  34.0532  35.7299
    35.8652  37.1580

          k = 0.1111 0.2222 0.2222 (  1008 PWs)   bands (ev):

   -25.0327  -7.8033  -7.7610  -7.3218   8.5728  10.0920  10.8689  12.4809
    13.4657  13.6583  19.4028  19.6348  21.7546  22.8858  24.1516  25.4385
    26.0667  28.8970  29.1107  30.9374  31.7637  32.4839  34.0616  34.7624
    35.7658  37.0189

          k = 0.1111 0.2222 0.3333 (  1007 PWs)   bands (ev):

   -24.9834  -8.2208  -7.7244  -7.2743   9.0077  10.1114  11.2748  12.1234
    13.6249  13.7969  18.4581  20.1780  21.2243  23.0164  24.6646  25.8175
    26.6172  27.8962  28.6051  30.7079  32.1760  33.5420  34.6568  36.2652
    36.8385  37.7671

          k = 0.1111 0.2222 0.4444 (  1010 PWs)   bands (ev):

   -24.9508  -8.4889  -7.6872  -7.2429   9.2410  10.0298  11.2659  11.6608
    13.9383  14.7850  18.4797  20.5834  20.7072  22.0927  23.4313  25.0680
    27.0984  29.6557  30.4421  30.9488  32.4935  33.0628  33.7643  35.8879
    36.6632  37.0272

          k = 0.1111 0.3333 0.3333 (  1011 PWs)   bands (ev):

   -24.9346  -8.1704  -8.1406  -7.2280   8.7732  10.1108  12.1660  12.1900
    13.6651  14.0263  18.5573  19.4606  21.2753  23.1226  24.9536  26.4656
    26.8913  27.0977  28.4666  28.8101  34.4715  35.4055  35.4732  35.9837
    36.7746  37.0072

          k = 0.1111 0.3333 0.4444 (  1010 PWs)   bands (ev):

   -24.9024  -8.4200  -8.1124  -7.1973   8.4436  10.3385  11.8413  12.3168
    13.9689  15.3174  18.2715  19.7756  20.8667  22.2846  23.5762  26.2554
    26.6309  28.2516  29.3253  31.2796  32.3145  34.2757  35.7411  36.8071
    37.0673  37.8993

          k = 0.1111 0.4444 0.4444 (  1013 PWs)   bands (ev):

   -24.8703  -8.3762  -8.3718  -7.1671   7.9694  10.6212  12.0221  12.0300
    15.5093  15.6789  17.8818  19.1983  21.0796  22.5070  23.3873  23.7095
    27.5424  29.3076  30.9945  31.1099  31.8327  34.9180  34.9589  35.2535
    37.0630  38.3923

          k = 0.2222 0.2222 0.2222 (  1012 PWs)   bands (ev):

   -24.9904  -7.7725  -7.7143  -7.7143   8.9786  10.9294  10.9294  12.5308
    12.5308  13.0162  20.0423  21.1691  21.1691  23.7648  23.7648  23.8929
    25.7977  29.4351  29.4351  30.9929  33.1765  33.4837  33.4837  35.0887
    35.0887  35.3688

          k = 0.2222 0.2222 0.3333 (  1003 PWs)   bands (ev):

   -24.9415  -8.1670  -7.6948  -7.6603   9.1742  10.8292  11.0980  11.8464
    12.9577  13.9926  19.3294  20.5867  21.9446  22.9751  23.6666  25.9302
    26.8597  27.0118  29.5893  30.8574  32.1784  33.3678  35.1048  35.9895
    36.8864  36.9773

          k = 0.2222 0.2222 0.4444 (  1006 PWs)   bands (ev):

   -24.9092  -8.4313  -7.6579  -7.6245   9.1907  10.5733  10.9460  11.7120
    13.1886  15.8547  18.9069  19.7873  21.6353  22.8262  23.6689  24.2153
    28.6806  29.2911  29.4583  30.7533  32.0142  33.4844  33.9505  34.8878
    35.2545  39.0599

          k = 0.2222 0.3333 0.3333 (   999 PWs)   bands (ev):

   -24.8932  -8.1177  -8.0891  -7.6232   8.9729  10.5403  11.0335  12.1575
    13.7806  14.5641  18.6534  20.4448  22.3292  22.9848  25.1946  25.3328
    27.0439  27.7817  27.8076  30.1802  32.8779  33.8419  35.1331  35.6835
    37.1728  37.4017

          k = 0.2222 0.3333 0.4444 (  1012 PWs)   bands (ev):

   -24.8612  -8.3644  -8.0615  -7.5880   8.6880  10.4153  10.8783  12.2113
    14.2538  16.5090  18.0739  19.4877  22.2923  22.9038  24.0674  25.3993
    27.7163  28.4887  29.8277  30.2641  32.4255  33.0228  33.1547  35.5654
    36.6277  38.0192

          k = 0.2222 0.4444 0.4444 (  1003 PWs)   bands (ev):

   -24.8294  -8.3218  -8.3176  -7.5534   8.2644  10.5484  10.6364  12.2406
    16.3590  17.0132  17.3492  18.8898  22.0481  23.2662  23.5431  24.7139
    29.2826  29.5274  29.9494  30.6017  31.3311  32.9615  33.5837  33.6848
    35.5826  36.9689

          k = 0.3333 0.3333 0.3333 (  1009 PWs)   bands (ev):

   -24.8453  -8.0676  -8.0295  -8.0295   9.0487  10.1051  10.1051  13.9269
    13.9269  15.2438  17.3754  22.2636  22.2636  23.7594  24.9996  24.9996
    27.4129  27.4129  27.9362  30.8903  32.0206  33.4474  33.4474  35.7656
    36.4194  36.4195

          k = 0.3333 0.3333 0.4444 (  1008 PWs)   bands (ev):

   -24.8136  -8.2998  -8.0137  -7.9898   8.8791   9.6040  10.0766  14.0286
    14.7575  16.5739  17.3153  20.2953  23.4770  24.0181  24.3267  24.5374
    27.8021  29.1579  29.4742  30.4401  31.5321  31.8802  33.0301  34.8352
    35.0796  37.7415

          k = 0.3333 0.4444 0.4444 (  1007 PWs)   bands (ev):

   -24.7822  -8.2586  -8.2547  -7.9623   8.6647   9.5605   9.6183  14.4650
    15.7517  16.7114  18.0014  19.9250  22.1908  24.3501  24.5238  25.2438
    29.1378  29.5911  29.8417  30.0733  30.9097  32.2907  32.4833  32.5197
    36.0644  36.2326

          k = 0.4444 0.4444 0.4444 (  1016 PWs)   bands (ev):

   -24.7509  -8.2183  -8.2129  -8.2129   8.9368   9.0857   9.0857  14.8546
    16.8603  16.8603  18.6645  20.4642  20.4642  25.4457  25.4960  25.4960
    28.0509  29.7912  29.7912  30.4872  31.0074  31.4983  31.4983  33.4781
    36.5140  36.5142

     the Fermi energy is     9.9233 ev

!    total energy              =    -471.70030086 Ry
     total all-electron energy =    -17721.225030 Ry
     estimated scf accuracy    <       0.00001227 Ry
     smearing contrib. (-TS)   =       0.00014431 Ry
     internal energy E=F+TS    =    -471.70044517 Ry

     The total energy is F=E-TS. E is the sum of the following terms:
     one-electron contribution =      -8.70124218 Ry
     hartree contribution      =       9.32413780 Ry
     xc contribution           =     -73.12641810 Ry
     ewald contribution        =     -53.42125855 Ry
     one-center paw contrib.   =    -345.77566414 Ry

     convergence has been achieved in   3 iterations

     Writing all to output data dir ./work/POSCAR.save/

     init_run     :      0.23s CPU      0.23s WALL (       1 calls)
     electrons    :      1.27s CPU      1.65s WALL (       1 calls)

     Called by init_run:
     wfcinit      :      0.06s CPU      0.06s WALL (       1 calls)
     potinit      :      0.08s CPU      0.08s WALL (       1 calls)
     hinit0       :      0.09s CPU      0.09s WALL (       1 calls)

     Called by electrons:
     c_bands      :      1.03s CPU      1.34s WALL (       4 calls)
     sum_band     :      0.12s CPU      0.13s WALL (       4 calls)
     v_of_rho     :      0.00s CPU      0.00s WALL (       4 calls)
     newd         :      0.01s CPU      0.01s WALL (       4 calls)
     PAW_pot      :      0.15s CPU      0.17s WALL (       4 calls)
     mix_rho      :      0.00s CPU      0.00s WALL (       4 calls)

     Called by c_bands:
     init_us_2    :      0.01s CPU      0.01s WALL (     315 calls)
     init_us_2:cp :      0.01s CPU      0.01s WALL (     315 calls)
     cegterg      :      1.01s CPU      1.05s WALL (     140 calls)

     Called by *egterg:
     cdiaghg      :      0.34s CPU      0.35s WALL (     660 calls)
     h_psi        :      0.56s CPU      0.59s WALL (     730 calls)
     s_psi        :      0.01s CPU      0.01s WALL (     730 calls)
     g_psi        :      0.00s CPU      0.00s WALL (     555 calls)

     Called by h_psi:
     h_psi:calbec :      0.03s CPU      0.03s WALL (     730 calls)
     vloc_psi     :      0.53s CPU      0.55s WALL (     730 calls)
     add_vuspsi   :      0.01s CPU      0.01s WALL (     730 calls)

     General routines
     calbec       :      0.03s CPU      0.04s WALL (     870 calls)
     fft          :      0.06s CPU      0.06s WALL (      51 calls)
     ffts         :      0.03s CPU      0.03s WALL (       8 calls)
     fftw         :      0.56s CPU      0.59s WALL (   25430 calls)
     interpolate  :      0.03s CPU      0.03s WALL (       4 calls)

     Parallel routines

     PWSCF        :      1.66s CPU      2.58s WALL


   This run was terminated on:  22:41:23  15May2024            

=------------------------------------------------------------------------------=
   JOB DONE.
=------------------------------------------------------------------------------=
