
     Program PWSCF v.7.1 starts on 15May2024 at 22:41:24 

     This program is part of the open-source Quantum ESPRESSO suite
     for quantum simulation of materials; please cite
         "P. Giannozzi et al., J. Phys.:Condens. Matter 21 395502 (2009);
         "P. Giannozzi et al., J. Phys.:Condens. Matter 29 465901 (2017);
         "P. Giannozzi et al., J. Chem. Phys. 152 154105 (2020);
          URL http://www.quantum-espresso.org", 
     in publications or presentations arising from this work. More details at
     http://www.quantum-espresso.org/quote

     Parallel version (MPI & OpenMP), running on      10 processor cores
     Number of MPI processes:                10
     Threads/MPI process:                     1

     MPI processes distributed on     1 nodes
     14563 MiB available memory on the printing compute node when the environment starts

     Waiting for input...
     Reading input from standard input

     Current dimensions of program PWSCF are:
     Max number of different atomic species (ntypx) = 10
     Max number of k-points (npk) =  40000
     Max angular momentum in pseudopotentials (lmaxx) =  4

     Atomic positions and unit cell read from directory:
     ./work/POSCAR.save/

     file Ce.pbe-spdn-kjpaw_psl.1.0.0.UPF: wavefunction(s)  5D renormalized
     Message from routine setup:
     using ibrav=0 with symmetry is DISCOURAGED, use correct ibrav instead

     R & G space division:  proc/nbgrp/npool/nimage =      10
     Subspace diagonalization in iterative solution of the eigenvalue problem:
     a serial algorithm will be used


     Parallelization info
     --------------------
     sticks:   dense  smooth     PW     G-vecs:    dense   smooth      PW
     Min          59      48     15                 1081      810     150
     Max          60      49     18                 1084      813     151
     Sum         593     489    161                10827     8121    1503

     Using Slab Decomposition



     bravais-lattice index     =            0
     lattice parameter (alat)  =       6.4265  a.u.
     unit-cell volume          =     265.4168 (a.u.)^3
     number of atoms/cell      =            1
     number of atomic types    =            1
     number of electrons       =        11.00
     number of Kohn-Sham states=           26
     kinetic-energy cutoff     =      37.0000  Ry
     charge density cutoff     =     179.0000  Ry
     Exchange-correlation= SLA  PW   PBX  PBC
                           (   1   4   3   4   0   0   0)

     celldm(1)=   6.426524  celldm(2)=   0.000000  celldm(3)=   0.000000
     celldm(4)=   0.000000  celldm(5)=   0.000000  celldm(6)=   0.000000

     crystal axes: (cart. coord. in units of alat)
               a(1) = (   1.000000   0.000000   0.000000 )  
               a(2) = (   0.000000   1.000000   0.000000 )  
               a(3) = (   0.000000   0.000000   1.000000 )  

     reciprocal axes: (cart. coord. in units 2 pi/alat)
               b(1) = (  1.000000  0.000000  0.000000 )  
               b(2) = (  0.000000  1.000000  0.000000 )  
               b(3) = (  0.000000  0.000000  1.000000 )  


     PseudoPot. # 1 for Ce read from file:
     ./../../../../pseudo/psl100_PBE/Ce.pbe-spdn-kjpaw_psl.1.0.0.UPF
     MD5 check sum: 1a25380276e46fcecd5a173acdad072c
     Pseudo is Projector augmented-wave + core cor, Zval = 11.0
     Generated using 'atomic' code by A. Dal Corso  v.7.2
     Shape of augmentation charge: PSQ
     Using radial grid of 1255 points,  6 beta functions with: 
                l(1) =   0
                l(2) =   0
                l(3) =   1
                l(4) =   1
                l(5) =   2
                l(6) =   2
     Q(r) pseudized with 0 coefficients 


     atomic species   valence    mass     pseudopotential
        Ce            11.00   140.11600     Ce( 1.00)

     48 Sym. Ops., with inversion, found



   Cartesian axes

     site n.     atom                  positions (alat units)
         1           Ce  tau(   1) = (   0.0000000   0.0000000   0.0000000  )

     number of k points=    91  Methfessel-Paxton smearing, width (Ry)=  0.0200
                       cart. coord. in units 2pi/alat
        k(    1) = (   0.0000000   0.5000000   0.5000000), wk =   0.0219780
        k(    2) = (   0.0500000   0.5000000   0.5000000), wk =   0.0219780
        k(    3) = (   0.1000000   0.5000000   0.5000000), wk =   0.0219780
        k(    4) = (   0.1500000   0.5000000   0.5000000), wk =   0.0219780
        k(    5) = (   0.2000000   0.5000000   0.5000000), wk =   0.0219780
        k(    6) = (   0.2500000   0.5000000   0.5000000), wk =   0.0219780
        k(    7) = (   0.3000000   0.5000000   0.5000000), wk =   0.0219780
        k(    8) = (   0.3500000   0.5000000   0.5000000), wk =   0.0219780
        k(    9) = (   0.4000000   0.5000000   0.5000000), wk =   0.0219780
        k(   10) = (   0.4500000   0.5000000   0.5000000), wk =   0.0219780
        k(   11) = (   0.5000000   0.5000000   0.5000000), wk =   0.0219780
        k(   12) = (   0.4750000   0.4750000   0.4750000), wk =   0.0219780
        k(   13) = (   0.4500000   0.4500000   0.4500000), wk =   0.0219780
        k(   14) = (   0.4250000   0.4250000   0.4250000), wk =   0.0219780
        k(   15) = (   0.4000000   0.4000000   0.4000000), wk =   0.0219780
        k(   16) = (   0.3750000   0.3750000   0.3750000), wk =   0.0219780
        k(   17) = (   0.3500000   0.3500000   0.3500000), wk =   0.0219780
        k(   18) = (   0.3250000   0.3250000   0.3250000), wk =   0.0219780
        k(   19) = (   0.3000000   0.3000000   0.3000000), wk =   0.0219780
        k(   20) = (   0.2750000   0.2750000   0.2750000), wk =   0.0219780
        k(   21) = (   0.2500000   0.2500000   0.2500000), wk =   0.0219780
        k(   22) = (   0.2250000   0.2250000   0.2250000), wk =   0.0219780
        k(   23) = (   0.2000000   0.2000000   0.2000000), wk =   0.0219780
        k(   24) = (   0.1750000   0.1750000   0.1750000), wk =   0.0219780
        k(   25) = (   0.1500000   0.1500000   0.1500000), wk =   0.0219780
        k(   26) = (   0.1250000   0.1250000   0.1250000), wk =   0.0219780
        k(   27) = (   0.1000000   0.1000000   0.1000000), wk =   0.0219780
        k(   28) = (   0.0750000   0.0750000   0.0750000), wk =   0.0219780
        k(   29) = (   0.0500000   0.0500000   0.0500000), wk =   0.0219780
        k(   30) = (   0.0250000   0.0250000   0.0250000), wk =   0.0219780
        k(   31) = (   0.0000000   0.0000000   0.0000000), wk =   0.0219780
        k(   32) = (   0.0500000   0.0000000   0.0000000), wk =   0.0219780
        k(   33) = (   0.1000000   0.0000000   0.0000000), wk =   0.0219780
        k(   34) = (   0.1500000   0.0000000   0.0000000), wk =   0.0219780
        k(   35) = (   0.2000000   0.0000000   0.0000000), wk =   0.0219780
        k(   36) = (   0.2500000   0.0000000   0.0000000), wk =   0.0219780
        k(   37) = (   0.3000000   0.0000000   0.0000000), wk =   0.0219780
        k(   38) = (   0.3500000   0.0000000   0.0000000), wk =   0.0219780
        k(   39) = (   0.4000000   0.0000000   0.0000000), wk =   0.0219780
        k(   40) = (   0.4500000   0.0000000   0.0000000), wk =   0.0219780
        k(   41) = (   0.5000000   0.0000000   0.0000000), wk =   0.0219780
        k(   42) = (   0.5000000   0.0500000   0.0000000), wk =   0.0219780
        k(   43) = (   0.5000000   0.1000000   0.0000000), wk =   0.0219780
        k(   44) = (   0.5000000   0.1500000   0.0000000), wk =   0.0219780
        k(   45) = (   0.5000000   0.2000000   0.0000000), wk =   0.0219780
        k(   46) = (   0.5000000   0.2500000   0.0000000), wk =   0.0219780
        k(   47) = (   0.5000000   0.3000000   0.0000000), wk =   0.0219780
        k(   48) = (   0.5000000   0.3500000   0.0000000), wk =   0.0219780
        k(   49) = (   0.5000000   0.4000000   0.0000000), wk =   0.0219780
        k(   50) = (   0.5000000   0.4500000   0.0000000), wk =   0.0219780
        k(   51) = (   0.5000000   0.5000000   0.0000000), wk =   0.0219780
        k(   52) = (   0.4750000   0.4750000   0.0000000), wk =   0.0219780
        k(   53) = (   0.4500000   0.4500000   0.0000000), wk =   0.0219780
        k(   54) = (   0.4250000   0.4250000   0.0000000), wk =   0.0219780
        k(   55) = (   0.4000000   0.4000000   0.0000000), wk =   0.0219780
        k(   56) = (   0.3750000   0.3750000   0.0000000), wk =   0.0219780
        k(   57) = (   0.3500000   0.3500000   0.0000000), wk =   0.0219780
        k(   58) = (   0.3250000   0.3250000   0.0000000), wk =   0.0219780
        k(   59) = (   0.3000000   0.3000000   0.0000000), wk =   0.0219780
        k(   60) = (   0.2750000   0.2750000   0.0000000), wk =   0.0219780
        k(   61) = (   0.2500000   0.2500000   0.0000000), wk =   0.0219780
        k(   62) = (   0.2250000   0.2250000   0.0000000), wk =   0.0219780
        k(   63) = (   0.2000000   0.2000000   0.0000000), wk =   0.0219780
        k(   64) = (   0.1750000   0.1750000   0.0000000), wk =   0.0219780
        k(   65) = (   0.1500000   0.1500000   0.0000000), wk =   0.0219780
        k(   66) = (   0.1250000   0.1250000   0.0000000), wk =   0.0219780
        k(   67) = (   0.1000000   0.1000000   0.0000000), wk =   0.0219780
        k(   68) = (   0.0750000   0.0750000   0.0000000), wk =   0.0219780
        k(   69) = (   0.0500000   0.0500000   0.0000000), wk =   0.0219780
        k(   70) = (   0.0250000   0.0250000   0.0000000), wk =   0.0219780
        k(   71) = (   0.0000000   0.0000000   0.0000000), wk =   0.0219780
        k(   72) = (   0.0250000   0.0250000   0.0250000), wk =   0.0219780
        k(   73) = (   0.0500000   0.0500000   0.0500000), wk =   0.0219780
        k(   74) = (   0.0750000   0.0750000   0.0750000), wk =   0.0219780
        k(   75) = (   0.1000000   0.1000000   0.1000000), wk =   0.0219780
        k(   76) = (   0.1250000   0.1250000   0.1250000), wk =   0.0219780
        k(   77) = (   0.1500000   0.1500000   0.1500000), wk =   0.0219780
        k(   78) = (   0.1750000   0.1750000   0.1750000), wk =   0.0219780
        k(   79) = (   0.2000000   0.2000000   0.2000000), wk =   0.0219780
        k(   80) = (   0.2250000   0.2250000   0.2250000), wk =   0.0219780
        k(   81) = (   0.2500000   0.2500000   0.2500000), wk =   0.0219780
        k(   82) = (   0.2750000   0.2750000   0.2750000), wk =   0.0219780
        k(   83) = (   0.3000000   0.3000000   0.3000000), wk =   0.0219780
        k(   84) = (   0.3250000   0.3250000   0.3250000), wk =   0.0219780
        k(   85) = (   0.3500000   0.3500000   0.3500000), wk =   0.0219780
        k(   86) = (   0.3750000   0.3750000   0.3750000), wk =   0.0219780
        k(   87) = (   0.4000000   0.4000000   0.4000000), wk =   0.0219780
        k(   88) = (   0.4250000   0.4250000   0.4250000), wk =   0.0219780
        k(   89) = (   0.4500000   0.4500000   0.4500000), wk =   0.0219780
        k(   90) = (   0.4750000   0.4750000   0.4750000), wk =   0.0219780
        k(   91) = (   0.5000000   0.5000000   0.5000000), wk =   0.0219780

     Dense  grid:    10827 G-vectors     FFT dimensions: (  27,  27,  27)

     Smooth grid:     8121 G-vectors     FFT dimensions: (  25,  25,  25)

     Estimated max dynamical RAM per process >       4.53 MB

     Estimated total dynamical RAM >      45.32 MB

     The potential is recalculated from file :
     ./work/POSCAR.save/charge-density

     Starting wfcs are   13 randomized atomic wfcs +   13 random wfcs
     Checking if some PAW data can be deallocated... 

     Band Structure Calculation
     Davidson diagonalization with overlap

     ethr =  6.64E-07,  avg # of iterations = 18.5

     total cpu time spent up to now is        4.0 secs

     End of band structure calculation

          k = 0.0000 0.5000 0.5000 (  1024 PWs)   bands (ev):

   -24.8834  -8.4272  -8.4272  -7.0028   7.7377  10.1691  13.1698  13.1698
    14.6732  14.6732  17.6685  20.6382  21.7667  21.7667  21.9746  22.2739
    27.4733  29.9643  29.9643  33.4446  34.1180  34.1403  34.1403  34.1936
    38.9197  38.9197

          k = 0.0500 0.5000 0.5000 (  1008 PWs)   bands (ev):

   -24.8800  -8.4228  -8.4228  -7.0366   7.7598  10.2818  12.8033  12.8033
    15.0660  15.0660  17.6746  20.1019  21.8242  21.8242  22.2753  22.4908
    27.5715  29.9804  29.9804  33.3404  33.9148  33.9148  34.0001  34.2202
    39.2160  39.2160

          k = 0.1000 0.5000 0.5000 (  1016 PWs)   bands (ev):

   -24.8703  -8.4099  -8.4099  -7.1339   7.8254  10.6147  12.1413  12.1413
    15.8009  15.8009  17.6923  19.2111  22.0001  22.0001  22.2761  23.3041
    27.8818  30.0276  30.0276  33.0488  33.3669  33.3669  33.6847  34.2993
    37.5138  38.8017

          k = 0.1500 0.5000 0.5000 (  1012 PWs)   bands (ev):

   -24.8552  -8.3897  -8.3897  -7.2816   7.9319  11.1539  11.4650  11.4650
    16.5796  16.5796  17.7201  18.3032  22.2659  22.3032  22.3032  24.0387
    28.4381  30.1028  30.1028  32.6205  32.6967  32.6967  33.2542  34.4290
    35.5754  38.1797

          k = 0.2000 0.5000 0.5000 (  1012 PWs)   bands (ev):

   -24.8360  -8.3640  -8.3640  -7.4622   8.0747  10.8380  10.8380  11.8787
    17.3138  17.3138  17.4381  17.7557  22.2247  22.7419  22.7419  24.6148
    29.2508  30.2001  30.2001  32.0290  32.0290  32.0991  32.7847  33.7356
    34.6057  37.5748

          k = 0.2500 0.5000 0.5000 (  1016 PWs)   bands (ev):

   -24.8145  -8.3353  -8.3353  -7.6556   8.2464  10.2840  10.2840  12.7642
    16.6417  17.7957  17.9568  17.9568  22.1184  23.3115  23.3115  25.0350
    30.2714  30.3072  30.3072  31.4109  31.4391  31.4391  32.1856  32.3291
    34.8232  37.0580

          k = 0.3000 0.5000 0.5000 (  1008 PWs)   bands (ev):

   -24.7929  -8.3063  -8.3063  -7.8426   8.4357   9.8161   9.8161  13.7826
    15.9341  17.8364  18.4837  18.4837  21.8944  23.9787  23.9787  25.3367
    30.2239  30.3908  30.3908  31.0024  31.0024  31.3667  31.3978  31.9222
    35.0707  36.7032

          k = 0.3500 0.5000 0.5000 (  1016 PWs)   bands (ev):

   -24.7733  -8.2799  -8.2799  -8.0063   8.6256   9.4434   9.4434  14.9019
    15.3374  17.8737  18.8877  18.8877  21.4850  24.6695  24.6695  25.5531
    29.0309  30.3609  30.3609  30.8440  30.8440  30.8997  31.5863  32.4708
    35.3303  36.6357

          k = 0.4000 0.5000 0.5000 (  1016 PWs)   bands (ev):

   -24.7576  -8.2588  -8.2588  -8.1331   8.7930   9.1726   9.1726  14.8776
    16.0793  17.9038  19.1721  19.1721  20.8395  25.2742  25.2742  25.7023
    28.1520  30.2788  30.2788  30.5655  30.9223  30.9223  31.3367  33.2574
    35.5722  37.0603

          k = 0.4500 0.5000 0.5000 (  1016 PWs)   bands (ev):

   -24.7475  -8.2451  -8.2451  -8.2130   8.9105   9.0082   9.0082  14.5841
    17.2298  17.9233  19.3414  19.3414  19.9991  25.6803  25.6803  25.7912
    27.6402  30.2722  30.2722  30.3577  31.0587  31.0587  31.1831  33.6322
    35.7520  36.1915

          k = 0.5000 0.5000 0.5000 (   968 PWs)   bands (ev):

   -24.7439  -8.2402  -8.2402  -8.2402   8.9532   8.9532   8.9532  14.4827
    17.9302  17.9302  19.3977  19.3977  19.3977  25.8210  25.8210  25.8210
    27.4759  30.2871  30.2871  30.2871  31.1316  31.1316  31.1316  33.7265
    35.8199  35.8199

          k = 0.4750 0.4750 0.4750 (  1016 PWs)   bands (ev):

   -24.7466  -8.2366  -8.2355  -8.2355   8.9490   8.9803   8.9803  14.5591
    17.6166  17.6166  19.2372  19.7117  19.7117  25.7409  25.7461  25.7461
    27.5973  30.2040  30.2040  30.4459  30.9832  31.1811  31.1811  33.6650
    35.9827  35.9827

          k = 0.4500 0.4500 0.4500 (  1016 PWs)   bands (ev):

   -24.7545  -8.2254  -8.2210  -8.2210   8.9400   9.0616   9.0616  14.7841
    17.0061  17.0061  18.7941  20.3194  20.3194  25.5104  25.5477  25.5477
    27.9486  29.8925  29.8925  30.5962  30.8828  31.4174  31.4174  33.5137
    36.4067  36.4068

          k = 0.4250 0.4250 0.4250 (  1016 PWs)   bands (ev):

   -24.7673  -8.2065  -8.1969  -8.1969   8.9337   9.1962   9.1962  15.1462
    16.3330  16.3330  18.1529  20.9702  20.9702  25.1726  25.2872  25.2872
    28.4712  29.3856  29.3856  30.0745  31.4941  31.8443  31.8443  33.3602
    36.7656  36.7656

          k = 0.4000 0.4000 0.4000 (  1015 PWs)   bands (ev):

   -24.7849  -8.1800  -8.1636  -8.1636   8.9392   9.3824   9.3824  15.6296
    15.6531  15.6531  17.3968  21.5717  21.5717  24.7817  25.0411  25.0411
    28.7892  28.7892  29.0908  29.4951  32.0576  32.3685  32.3685  33.4158
    36.4914  36.4914

          k = 0.3750 0.3750 0.3750 (  1015 PWs)   bands (ev):

   -24.8068  -8.1457  -8.1215  -8.1215   8.9636   9.6176   9.6176  14.9850
    14.9850  16.2112  16.5943  22.0339  22.0339  24.3786  24.8977  24.8977
    28.1855  28.1855  28.9012  29.7555  32.2188  32.8884  32.8884  34.0218
    36.2377  36.2377

          k = 0.3500 0.3500 0.3500 (  1009 PWs)   bands (ev):

   -24.8324  -8.1036  -8.0710  -8.0710   9.0092   9.8978   9.8978  14.3393
    14.3393  15.7701  16.8929  22.2583  22.2583  23.9927  24.9238  24.9238
    27.6578  27.6578  28.3165  30.4368  32.1177  33.2892  33.2892  35.0172
    36.2431  36.2431

          k = 0.3250 0.3250 0.3250 (  1009 PWs)   bands (ev):

   -24.8611  -8.0537  -8.0129  -8.0129   9.0710  10.2157  10.2157  13.7259
    13.7259  14.9906  17.6217  22.2299  22.2299  23.6515  25.0267  25.0267
    27.3466  27.3466  27.7539  31.1152  31.9708  33.4935  33.4935  36.1508
    36.5511  36.5511

          k = 0.3000 0.3000 0.3000 (  1015 PWs)   bands (ev):

   -24.8923  -7.9964  -7.9482  -7.9482   9.1342  10.5563  10.5563  13.1607
    13.1607  14.2801  18.3743  22.0390  22.0390  23.3908  24.9509  24.9509
    27.2214  27.4390  27.4390  31.6808  31.9256  33.5431  33.5431  36.9987
    36.9987  37.2163

          k = 0.2750 0.2750 0.2750 (  1012 PWs)   bands (ev):

   -24.9251  -7.9318  -7.8780  -7.8780   9.1708  10.8811  10.8811  12.6819
    12.6819  13.6829  19.0891  21.7748  21.7748  23.2698  24.6368  24.6368
    26.7237  27.9189  27.9189  31.6163  32.4686  33.5298  33.5298  36.9482
    37.0470  37.0470

          k = 0.2500 0.2500 0.2500 (  1018 PWs)   bands (ev):

   -24.9588  -7.8609  -7.8036  -7.8036   9.1398  11.0729  11.0729  12.4050
    12.4050  13.2502  19.6686  21.4870  21.4870  23.3834  24.2243  24.2243
    26.2639  28.6011  28.6011  31.4139  32.9843  33.5095  33.5095  35.9107
    36.2590  36.2590

          k = 0.2250 0.2250 0.2250 (  1012 PWs)   bands (ev):

   -24.9925  -7.7849  -7.7267  -7.7267   9.0016  10.9589  10.9589  12.4997
    12.4997  13.0279  20.0161  21.2001  21.2001  23.8107  23.8107  23.8245
    25.8443  29.3513  29.3513  31.0489  33.1813  33.4885  33.4885  35.2019
    35.2019  35.3769

          k = 0.2000 0.2000 0.2000 (  1009 PWs)   bands (ev):

   -25.0254  -7.7052  -7.6491  -7.6491   8.7478  10.6376  10.6376  12.8622
    12.8622  13.0278  20.1328  20.9264  20.9264  23.4427  23.4427  24.5870
    25.4662  30.0444  30.0444  30.3840  33.0413  33.3712  33.3712  34.3523
    34.3523  35.5765

          k = 0.1750 0.1750 0.1750 (  1015 PWs)   bands (ev):

   -25.0567  -7.6242  -7.5730  -7.5730   8.4105  10.2725  10.2725  13.2176
    13.3212  13.3212  20.1066  20.6724  20.6724  23.1470  23.1470  25.1309
    25.5741  29.4363  30.3972  30.3972  32.9473  33.1010  33.1010  34.1081
    34.1081  36.1233

          k = 0.1500 0.1500 0.1500 (  1003 PWs)   bands (ev):

   -25.0856  -7.5443  -7.5005  -7.5005   8.0384   9.9236   9.9236  13.5449
    13.8059  13.8059  20.0186  20.4417  20.4417  22.9436  22.9436  24.8391
    26.6817  28.3732  30.0153  30.0153  33.0011  33.3433  33.3433  34.2168
    34.2168  36.7638

          k = 0.1250 0.1250 0.1250 (   994 PWs)   bands (ev):

   -25.1113  -7.4686  -7.4340  -7.4340   7.6733   9.6120   9.6120  13.9586
    14.2804  14.2804  19.9167  20.2369  20.2369  22.8501  22.8501  24.5914
    27.1732  27.9834  29.1489  29.1489  33.1757  34.0757  34.0757  34.4594
    34.4594  37.4048

          k = 0.1000 0.1000 0.1000 (   997 PWs)   bands (ev):

   -25.1334  -7.4003  -7.3757  -7.3757   7.3448   9.3477   9.3477  14.4126
    14.7165  14.7165  19.8269  20.0611  20.0611  22.8815  22.8815  24.3882
    26.2017  28.1598  28.1598  29.1181  33.4663  34.7090  34.7090  35.0694
    35.0694  37.9783

          k = 0.0750 0.0750 0.0750 (  1000 PWs)   bands (ev):

   -25.1511  -7.3428  -7.3278  -7.3278   7.0727   9.1369   9.1369  14.8597
    15.0879  15.0879  19.7631  19.9178  19.9178  23.0485  23.0485  24.2298
    25.2989  27.1807  27.1807  30.2045  33.9101  35.0911  35.0911  36.0682
    36.0682  38.3348

          k = 0.0500 0.0500 0.0500 (  1012 PWs)   bands (ev):

   -25.1641  -7.2991  -7.2921  -7.2921   6.8699   8.9835   8.9835  15.2462
    15.3713  15.3713  19.7304  19.8112  19.8112  23.3504  23.3504  24.1165
    24.5670  26.2708  26.2708  31.0626  34.5790  35.5077  35.5077  37.0680
    37.0680  38.1932

          k = 0.0250 0.0250 0.0250 (  1021 PWs)   bands (ev):

   -25.1721  -7.2719  -7.2700  -7.2700   6.7451   8.8904   8.8904  15.5129
    15.5486  15.5486  19.7224  19.7453  19.7453  23.7520  23.7520  24.0485
    24.0795  25.4949  25.4949  31.5787  35.4797  35.9380  35.9380  37.3226
    37.3226  37.6403

          k = 0.0000 0.0000 0.0000 (  1021 PWs)   bands (ev):

   -25.1747  -7.2626  -7.2626  -7.2626   6.7029   8.8592   8.8592  15.6089
    15.6089  15.6089  19.7229  19.7229  19.7229  23.9064  24.0258  24.0258
    24.0258  25.0949  25.0949  31.7442  36.1968  36.1968  36.1968  37.0666
    37.0666  37.0666

          k = 0.0500 0.0000 0.0000 (  1021 PWs)   bands (ev):

   -25.1712  -7.3010  -7.2594  -7.2594   6.7583   8.8745   8.9273  15.4657
    15.4657  15.6171  19.4812  19.8743  19.8743  23.3415  24.1094  24.1147
    24.1147  25.2291  25.8488  31.5404  35.4292  35.4292  36.4772  36.6278
    37.6740  37.8479

          k = 0.1000 0.0000 0.0000 (  1009 PWs)   bands (ev):

   -25.1609  -7.4106  -7.2500  -7.2500   6.9141   8.9193   9.1321  15.1011
    15.1011  15.6411  18.9102  20.2557  20.2557  22.3752  24.3864  24.3864
    24.4477  25.7467  27.0243  31.0445  34.4080  34.4080  35.3873  36.1659
    37.2031  38.7822

          k = 0.1500 0.0000 0.0000 (  1001 PWs)   bands (ev):

   -25.1448  -7.5766  -7.2354  -7.2354   7.1440   8.9910   9.4688  14.6314
    14.6314  15.6790  18.2401  20.7334  20.7334  21.4536  24.6603  24.8493
    24.8493  26.6709  28.2948  30.4349  33.4480  33.4480  33.5669  35.1838
    38.1970  39.2562

          k = 0.2000 0.0000 0.0000 (  1001 PWs)   bands (ev):

   -25.1244  -7.7783  -7.2169  -7.2169   7.4190   9.0848   9.9137  14.1418
    14.1418  15.7276  17.6164  20.6113  21.2099  21.2099  24.7848  25.4960
    25.4960  27.7924  29.6259  29.8181  31.7307  32.5934  32.5934  34.3621
    39.3528  39.3980

          k = 0.2500 0.0000 0.0000 (  1004 PWs)   bands (ev):

   -25.1017  -7.9929  -7.1963  -7.1963   7.7174   9.1939  10.4085  13.6819
    13.6819  15.7827  17.1439  19.8633  21.6408  21.6408  24.8155  26.2792
    26.2792  28.9083  29.2475  30.0571  31.0016  31.8915  31.8915  33.7379
    39.4236  39.5167

          k = 0.3000 0.0000 0.0000 (  1016 PWs)   bands (ev):

   -25.0787  -8.1992  -7.1756  -7.1756   8.0247   9.3091  10.8561  13.2801
    13.2801  15.8390  16.9283  19.2223  22.0150  22.0150  24.6279  27.0896
    27.0896  28.5915  28.7521  29.8907  31.4327  31.4327  32.4051  33.5280
    39.4221  39.5492

          k = 0.3500 0.0000 0.0000 (  1008 PWs)   bands (ev):

   -25.0579  -8.3788  -7.1567  -7.1567   8.3263   9.4189  11.1508  12.9539
    12.9539  15.8912  17.0666  18.7020  22.3300  22.3300  24.0033  27.7298
    27.7298  27.7644  28.3503  30.2154  31.3895  31.3895  33.8108  34.0621
    39.3398  39.3398

          k = 0.4000 0.0000 0.0000 (  1004 PWs)   bands (ev):

   -25.0412  -8.5174  -7.1417  -7.1417   8.5980   9.5105  11.2555  12.7142
    12.7142  15.9334  17.5741  18.3163  22.5769  22.5769  22.9535  27.4812
    28.0230  28.0230  28.0546  30.0856  31.9077  31.9077  35.1707  35.2542
    38.1069  38.1069

          k = 0.4500 0.0000 0.0000 (  1020 PWs)   bands (ev):

   -25.0305  -8.6047  -7.1320  -7.1320   8.7981   9.5717  11.2411  12.5677
    12.5677  15.9608  18.0784  18.3026  21.8338  22.7383  22.7383  27.4668
    27.8735  28.0647  28.0647  29.8617  32.8006  32.8006  36.3730  36.6937
    36.6937  36.7625

          k = 0.5000 0.0000 0.0000 (  1020 PWs)   bands (ev):

   -25.0268  -8.6344  -7.1287  -7.1287   8.8740   9.5932  11.2187  12.5185
    12.5185  15.9704  17.9979  18.7541  21.2460  22.7949  22.7949  27.4896
    27.8126  28.0540  28.0540  29.7623  33.3888  33.3888  35.9454  35.9454
    37.0009  38.1980

          k = 0.5000 0.0500 0.0000 (  1018 PWs)   bands (ev):

   -25.0233  -8.6295  -7.1646  -7.1257   8.9408   9.6530  10.9973  12.5323
    12.6822  15.8582  18.1330  18.7401  21.2618  22.5993  22.9905  26.9617
    27.5641  27.7820  28.9311  30.3038  33.2279  33.3994  35.5556  35.9980
    36.4425  38.3744

          k = 0.5000 0.1000 0.0000 (  1012 PWs)   bands (ev):

   -25.0134  -8.6153  -7.2674  -7.1169   9.1047   9.8614  10.5249  12.5728
    12.9960  15.5589  18.5170  18.6922  21.3065  22.1384  23.5402  26.0468
    26.7415  28.5353  29.9182  31.2474  32.8045  33.4305  34.8747  35.0984
    36.1601  38.4705

          k = 0.5000 0.1500 0.0000 (  1006 PWs)   bands (ev):

   -24.9978  -8.5929  -7.4233  -7.1031   9.2885   9.9862  10.2747  12.6374
    13.3127  15.1515  18.5933  19.0906  21.3706  21.6179  24.3650  25.1902
    25.9699  29.5340  30.8730  32.0102  32.2074  33.4797  33.5230  34.4702
    36.4431  38.5750

          k = 0.5000 0.2000 0.0000 (  1006 PWs)   bands (ev):

   -24.9780  -8.5645  -7.6134  -7.0857   9.4541   9.4587  10.8923  12.7216
    13.6040  14.7086  18.4227  19.7643  21.1763  21.4305  24.4071  25.3743
    25.3926  30.3193  31.5712  31.7505  32.0481  32.2415  33.5430  34.8994
    36.8600  38.6947

          k = 0.5000 0.2500 0.0000 (   992 PWs)   bands (ev):

   -24.9559  -8.5327  -7.8164  -7.0663   8.9648   9.6223  11.6603  12.8191
    13.8717  14.2811  18.1790  20.4254  20.8828  21.4378  23.7104  25.0812
    26.5722  29.2575  31.4216  31.5768  32.4544  32.5072  33.6152  35.9296
    37.4099  38.7554

          k = 0.5000 0.3000 0.0000 (  1006 PWs)   bands (ev):

   -24.9337  -8.5005  -8.0122  -7.0468   8.5407   9.7823  12.5103  12.9212
    13.9011  14.1175  17.9047  20.7483  20.9658  21.3346  23.1131  25.2131
    27.6055  27.8705  30.9131  31.0315  33.1158  33.6896  33.8041  37.0591
    38.0502  38.3337

          k = 0.5000 0.3500 0.0000 (  1016 PWs)   bands (ev):

   -24.9135  -8.4712  -8.1832  -7.0291   8.1969   9.9313  13.0178  13.3542
    13.5893  14.3360  17.6784  20.7583  21.1182  21.3490  22.6286  25.7541
    25.9600  29.2652  30.5066  30.5550  33.5733  33.7590  35.2715  37.0786
    37.9960  38.7082

          k = 0.5000 0.4000 0.0000 (  1016 PWs)   bands (ev):

   -24.8974  -8.4477  -8.3154  -7.0150   7.9441  10.0558  13.0979  13.3587
    14.0687  14.5135  17.5798  20.8821  20.9192  21.5878  22.2700  24.4307
    26.5084  30.2047  30.2084  30.7379  33.8168  33.8907  35.6997  36.7655
    37.2206  38.5660

          k = 0.5000 0.4500 0.0000 (  1020 PWs)   bands (ev):

   -24.8870  -8.4325  -8.3988  -7.0059   7.7897  10.1395  13.1511  13.2174
    14.5246  14.6315  17.6197  20.7037  21.2853  21.7227  22.0492  23.1080
    27.1897  30.0135  30.0258  32.2613  33.8612  34.0781  34.6226  35.6036
    38.1603  38.8389

          k = 0.5000 0.5000 0.0000 (  1024 PWs)   bands (ev):

   -24.8834  -8.4272  -8.4272  -7.0028   7.7377  10.1691  13.1698  13.1698
    14.6732  14.6732  17.6685  20.6382  21.7667  21.7667  21.9746  22.2739
    27.4733  29.9643  29.9643  33.4446  34.1180  34.1403  34.1403  34.1936
    38.9197  38.9198

          k = 0.4750 0.4750 0.0000 (  1020 PWs)   bands (ev):

   -24.8852  -8.4219  -8.4209  -7.0044   7.7637  10.1541  13.1734  13.1806
    14.6241  14.6283  17.6398  20.6677  21.3559  21.8768  22.0120  22.7355
    27.3373  29.7882  30.1874  32.8188  33.4213  34.4110  34.7434  34.8397
    38.6489  38.7054

          k = 0.4500 0.4500 0.0000 (  1016 PWs)   bands (ev):

   -24.8906  -8.4058  -8.4021  -7.0091   7.8408  10.1098  13.1848  13.2128
    14.4773  14.4963  17.5731  20.6240  20.9676  22.1233  22.1864  23.3970
    27.0461  29.3443  30.7480  31.9359  32.7191  34.9772  35.5438  35.5481
    38.0433  38.1499

          k = 0.4250 0.4250 0.0000 (  1012 PWs)   bands (ev):

   -24.8994  -8.3792  -8.3712  -7.0168   7.9663  10.0384  13.2051  13.2663
    14.2367  14.2848  17.5085  20.2148  21.0599  22.3061  22.6494  24.0543
    26.7748  28.7719  31.0378  31.4990  32.0242  35.7436  36.2465  36.2480
    37.3209  37.4014

          k = 0.4000 0.4000 0.0000 (  1016 PWs)   bands (ev):

   -24.9114  -8.3421  -8.3286  -7.0273   8.1348   9.9441  13.2362  13.3406
    13.9141  14.0052  17.4777  19.8032  21.2628  22.5561  23.2173  24.6325
    26.6637  28.1636  30.1480  31.3383  32.3648  36.3624  36.5616  36.7326
    36.8081  36.9210

          k = 0.3750 0.3750 0.0000 (  1019 PWs)   bands (ev):

   -24.9264  -8.2948  -8.2751  -7.0405   8.3362   9.8343  13.2803  13.4350
    13.5284  13.6733  17.4941  19.4694  21.4669  22.8667  23.8457  25.0448
    26.8426  27.5756  29.2781  30.6632  33.3047  35.6765  35.6936  36.9065
    37.5450  37.6238

          k = 0.3500 0.3500 0.0000 (  1011 PWs)   bands (ev):

   -24.9439  -8.2377  -8.2116  -7.0558   8.5498   9.7242  13.1008  13.3100
    13.3400  13.5487  17.5580  19.2219  21.6246  23.2271  24.4782  25.3167
    27.0639  27.3163  28.4401  30.0004  34.2153  34.8751  34.9154  36.8248
    38.0693  38.5095

          k = 0.3250 0.3250 0.0000 (  1009 PWs)   bands (ev):

   -24.9634  -8.1714  -8.1392  -7.0731   8.7307   9.6476  12.6501  12.9432
    13.4174  13.6806  17.6644  19.0577  21.7068  23.6174  24.9835  25.5954
    26.7550  27.6537  27.9454  29.3516  33.8678  34.0751  35.4657  36.6102
    38.1889  38.4159

          k = 0.3000 0.3000 0.0000 (  1005 PWs)   bands (ev):

   -24.9846  -8.0968  -8.0595  -7.0919   8.8003   9.6616  12.1918  12.6114
    13.5146  13.8291  17.8070  18.9684  21.7134  23.9914  25.0932  25.9667
    26.9079  26.9638  28.6088  28.7190  33.1029  33.2963  36.3428  36.4862
    37.2020  38.5177

          k = 0.2750 0.2750 0.0000 (  1007 PWs)   bands (ev):

   -25.0069  -8.0150  -7.9740  -7.1117   8.7244   9.7616  11.7377  12.3688
    13.6333  13.9925  17.9797  18.9422  21.6697  24.2286  24.8449  26.4306
    26.4895  27.4666  28.1053  29.2060  32.4533  32.5638  36.0394  36.0632
    37.6451  38.3968

          k = 0.2500 0.2500 0.0000 (  1007 PWs)   bands (ev):

   -25.0297  -7.9274  -7.8845  -7.1320   8.5551   9.8406  11.2972  12.2833
    13.7743  14.1685  18.1762  18.9656  21.6104  24.1224  24.5011  26.4356
    26.9346  27.5138  28.1226  29.5948  31.9294  32.0728  34.9798  35.7921
    38.1443  38.5984

          k = 0.2250 0.2250 0.0000 (  1003 PWs)   bands (ev):

   -25.0525  -7.8359  -7.7931  -7.1523   8.3380   9.8182  10.8778  12.3995
    13.9381  14.3542  18.3903  19.0239  21.5682  23.6793  24.1666  26.7930
    26.9482  27.3569  28.6453  29.7024  31.5256  32.0225  34.0497  35.5421
    37.8393  38.6007

          k = 0.2000 0.2000 0.0000 (  1009 PWs)   bands (ev):

   -25.0747  -7.7426  -7.7020  -7.1722   8.0948   9.7006  10.4858  12.6951
    14.1238  14.5461  18.6147  19.1019  21.5711  23.0971  23.8757  26.4130
    27.3610  27.4657  28.7651  29.8508  31.5946  31.7710  33.6999  35.3220
    37.5272  38.3173

          k = 0.1750 0.1750 0.0000 (  1005 PWs)   bands (ev):

   -25.0957  -7.6500  -7.6136  -7.1911   7.8395   9.5375  10.1264  13.1088
    14.3296  14.7397  18.8409  19.1861  21.6413  22.4849  23.6453  25.9136
    27.1569  28.0262  28.4454  30.3180  30.9704  32.1642  34.1092  35.1401
    37.2318  38.0606

          k = 0.1500 0.1500 0.0000 (  1005 PWs)   bands (ev):

   -25.1151  -7.5610  -7.5304  -7.2086   7.5846   9.3689   9.8045  13.5845
    14.5522  14.9299  19.0590  19.2681  21.7934  21.8862  23.4875  25.4563
    26.6160  27.9199  28.7388  29.9138  31.1064  32.9982  34.7999  35.0062
    36.9652  37.8365

          k = 0.1250 0.1250 0.0000 (  1001 PWs)   bands (ev):

   -25.1324  -7.4785  -7.4546  -7.2242   7.3431   9.2162   9.5243  14.0796
    14.7855  15.1103  19.2579  19.3471  21.3228  22.0337  23.4118  25.0481
    25.9998  27.3342  28.9101  29.4656  31.9543  33.9499  34.9347  35.5711
    36.7342  37.6489

          k = 0.1000 0.1000 0.0000 (  1003 PWs)   bands (ev):

   -25.1471  -7.4056  -7.3888  -7.2375   7.1274   9.0881   9.2895  14.5575
    15.0204  15.2738  19.4272  19.4286  20.8121  22.3598  23.4250  24.6970
    25.3837  26.7468  27.9355  30.1713  32.8767  34.9476  34.9591  36.3573
    36.5424  37.5040

          k = 0.0750 0.0750 0.0000 (  1001 PWs)   bands (ev):

   -25.1590  -7.3452  -7.3351  -7.2483   6.9482   8.9878   9.1034  14.9824
    15.2427  15.4126  19.5183  19.5595  20.3723  22.7639  23.5268  24.4116
    24.8155  26.1867  27.0198  30.8079  33.8338  35.0791  35.9816  36.3918
    37.1009  37.4233

          k = 0.0500 0.0500 0.0000 (  1017 PWs)   bands (ev):

   -25.1677  -7.3001  -7.2953  -7.2562   6.8140   8.9163   8.9684  15.3185
    15.4317  15.5190  19.6126  19.6519  20.0263  23.2323  23.7038  24.2001
    24.3429  25.6800  26.1837  31.3145  34.7903  35.3683  36.2837  36.8328
    37.5517  37.5782

          k = 0.0250 0.0250 0.0000 (  1021 PWs)   bands (ev):

   -25.1729  -7.2721  -7.2708  -7.2610   6.7310   8.8735   8.8866  15.5344
    15.5620  15.5860  19.6912  19.7055  19.8015  23.7259  23.9125  24.0217
    24.0698  25.2738  25.4686  31.6356  35.6787  35.8223  36.2186  37.0514
    37.3626  37.5745

          k = 0.0000 0.0000 0.0000 (  1021 PWs)   bands (ev):

   -25.1747  -7.2626  -7.2626  -7.2626   6.7029   8.8592   8.8592  15.6089
    15.6089  15.6089  19.7229  19.7229  19.7229  23.9064  24.0258  24.0258
    24.0258  25.0949  25.0949  31.7442  36.1968  36.1968  36.1968  37.0666
    37.0666  37.0666

          k = 0.0250 0.0250 0.0250 (  1021 PWs)   bands (ev):

   -25.1721  -7.2719  -7.2700  -7.2700   6.7451   8.8904   8.8904  15.5129
    15.5486  15.5486  19.7224  19.7453  19.7453  23.7520  23.7520  24.0485
    24.0795  25.4949  25.4949  31.5787  35.4797  35.9380  35.9380  37.3226
    37.3226  37.6403

          k = 0.0500 0.0500 0.0500 (  1012 PWs)   bands (ev):

   -25.1641  -7.2991  -7.2921  -7.2921   6.8699   8.9835   8.9835  15.2462
    15.3713  15.3713  19.7304  19.8112  19.8112  23.3504  23.3504  24.1165
    24.5670  26.2708  26.2708  31.0626  34.5790  35.5077  35.5077  37.0680
    37.0680  38.1927

          k = 0.0750 0.0750 0.0750 (  1000 PWs)   bands (ev):

   -25.1511  -7.3428  -7.3278  -7.3278   7.0727   9.1369   9.1369  14.8597
    15.0879  15.0879  19.7631  19.9178  19.9178  23.0485  23.0485  24.2298
    25.2989  27.1807  27.1807  30.2045  33.9101  35.0911  35.0911  36.0682
    36.0682  38.3348

          k = 0.1000 0.1000 0.1000 (   997 PWs)   bands (ev):

   -25.1334  -7.4003  -7.3757  -7.3757   7.3448   9.3477   9.3477  14.4126
    14.7165  14.7165  19.8269  20.0611  20.0611  22.8815  22.8815  24.3882
    26.2017  28.1598  28.1598  29.1181  33.4663  34.7090  34.7090  35.0694
    35.0694  37.9783

          k = 0.1250 0.1250 0.1250 (   994 PWs)   bands (ev):

   -25.1113  -7.4686  -7.4340  -7.4340   7.6733   9.6120   9.6120  13.9586
    14.2804  14.2804  19.9167  20.2369  20.2369  22.8501  22.8501  24.5914
    27.1732  27.9834  29.1489  29.1489  33.1757  34.0757  34.0757  34.4594
    34.4594  37.4048

          k = 0.1500 0.1500 0.1500 (  1003 PWs)   bands (ev):

   -25.0856  -7.5443  -7.5005  -7.5005   8.0384   9.9236   9.9236  13.5449
    13.8059  13.8059  20.0186  20.4417  20.4417  22.9436  22.9436  24.8391
    26.6817  28.3732  30.0153  30.0153  33.0011  33.3433  33.3433  34.2168
    34.2168  36.7638

          k = 0.1750 0.1750 0.1750 (  1015 PWs)   bands (ev):

   -25.0567  -7.6242  -7.5730  -7.5730   8.4105  10.2725  10.2725  13.2176
    13.3212  13.3212  20.1066  20.6724  20.6724  23.1470  23.1470  25.1309
    25.5741  29.4363  30.3972  30.3972  32.9473  33.1010  33.1010  34.1081
    34.1081  36.1233

          k = 0.2000 0.2000 0.2000 (  1009 PWs)   bands (ev):

   -25.0254  -7.7052  -7.6491  -7.6491   8.7478  10.6376  10.6376  12.8622
    12.8622  13.0278  20.1328  20.9264  20.9264  23.4427  23.4427  24.5870
    25.4662  30.0444  30.0444  30.3840  33.0413  33.3712  33.3712  34.3523
    34.3523  35.5765

          k = 0.2250 0.2250 0.2250 (  1012 PWs)   bands (ev):

   -24.9925  -7.7849  -7.7267  -7.7267   9.0016  10.9589  10.9589  12.4997
    12.4997  13.0279  20.0161  21.2001  21.2001  23.8107  23.8107  23.8245
    25.8443  29.3513  29.3513  31.0489  33.1813  33.4885  33.4885  35.2019
    35.2019  35.3769

          k = 0.2500 0.2500 0.2500 (  1018 PWs)   bands (ev):

   -24.9588  -7.8609  -7.8036  -7.8036   9.1398  11.0729  11.0729  12.4050
    12.4050  13.2502  19.6686  21.4870  21.4870  23.3834  24.2243  24.2243
    26.2639  28.6011  28.6011  31.4139  32.9843  33.5095  33.5095  35.9107
    36.2590  36.2590

          k = 0.2750 0.2750 0.2750 (  1012 PWs)   bands (ev):

   -24.9251  -7.9318  -7.8780  -7.8780   9.1708  10.8811  10.8811  12.6819
    12.6819  13.6829  19.0891  21.7748  21.7748  23.2698  24.6368  24.6368
    26.7237  27.9189  27.9189  31.6163  32.4686  33.5298  33.5298  36.9482
    37.0470  37.0470

          k = 0.3000 0.3000 0.3000 (  1015 PWs)   bands (ev):

   -24.8923  -7.9964  -7.9482  -7.9482   9.1342  10.5563  10.5563  13.1607
    13.1607  14.2801  18.3743  22.0390  22.0390  23.3908  24.9509  24.9509
    27.2214  27.4390  27.4390  31.6808  31.9256  33.5431  33.5431  36.9987
    36.9987  37.2163

          k = 0.3250 0.3250 0.3250 (  1009 PWs)   bands (ev):

   -24.8611  -8.0537  -8.0129  -8.0129   9.0710  10.2157  10.2157  13.7259
    13.7259  14.9906  17.6217  22.2299  22.2299  23.6515  25.0267  25.0267
    27.3466  27.3466  27.7539  31.1152  31.9708  33.4935  33.4935  36.1508
    36.5511  36.5511

          k = 0.3500 0.3500 0.3500 (  1009 PWs)   bands (ev):

   -24.8324  -8.1036  -8.0710  -8.0710   9.0092   9.8978   9.8978  14.3393
    14.3393  15.7701  16.8929  22.2583  22.2583  23.9927  24.9238  24.9238
    27.6578  27.6578  28.3165  30.4368  32.1177  33.2892  33.2892  35.0172
    36.2431  36.2431

          k = 0.3750 0.3750 0.3750 (  1015 PWs)   bands (ev):

   -24.8068  -8.1457  -8.1215  -8.1215   8.9636   9.6176   9.6176  14.9850
    14.9850  16.2112  16.5943  22.0339  22.0339  24.3786  24.8977  24.8977
    28.1855  28.1855  28.9012  29.7555  32.2188  32.8884  32.8884  34.0218
    36.2377  36.2377

          k = 0.4000 0.4000 0.4000 (  1015 PWs)   bands (ev):

   -24.7849  -8.1800  -8.1636  -8.1636   8.9392   9.3824   9.3824  15.6296
    15.6531  15.6531  17.3968  21.5717  21.5717  24.7817  25.0411  25.0411
    28.7892  28.7892  29.0908  29.4951  32.0576  32.3685  32.3685  33.4158
    36.4914  36.4914

          k = 0.4250 0.4250 0.4250 (  1016 PWs)   bands (ev):

   -24.7673  -8.2065  -8.1969  -8.1969   8.9337   9.1962   9.1962  15.1462
    16.3330  16.3330  18.1529  20.9702  20.9702  25.1726  25.2872  25.2872
    28.4712  29.3856  29.3856  30.0745  31.4941  31.8443  31.8443  33.3602
    36.7656  36.7656

          k = 0.4500 0.4500 0.4500 (  1016 PWs)   bands (ev):

   -24.7545  -8.2254  -8.2210  -8.2210   8.9400   9.0616   9.0616  14.7841
    17.0061  17.0061  18.7941  20.3194  20.3194  25.5104  25.5477  25.5477
    27.9486  29.8925  29.8925  30.5962  30.8828  31.4174  31.4174  33.5137
    36.4067  36.4067

          k = 0.4750 0.4750 0.4750 (  1016 PWs)   bands (ev):

   -24.7466  -8.2366  -8.2355  -8.2355   8.9490   8.9803   8.9803  14.5591
    17.6166  17.6166  19.2372  19.7117  19.7117  25.7409  25.7461  25.7461
    27.5973  30.2040  30.2040  30.4459  30.9832  31.1811  31.1811  33.6650
    35.9827  35.9827

          k = 0.5000 0.5000 0.5000 (   968 PWs)   bands (ev):

   -24.7439  -8.2402  -8.2402  -8.2402   8.9532   8.9532   8.9532  14.4827
    17.9302  17.9302  19.3977  19.3977  19.3977  25.8210  25.8210  25.8210
    27.4759  30.2871  30.2871  30.2871  31.1316  31.1316  31.1316  33.7265
    35.8199  35.8199

     Writing all to output data dir ./work/POSCAR.save/

     init_run     :      0.15s CPU      0.18s WALL (       1 calls)
     electrons    :      3.09s CPU      3.47s WALL (       1 calls)

     Called by init_run:
     wfcinit      :      0.00s CPU      0.01s WALL (       1 calls)
     potinit      :      0.06s CPU      0.08s WALL (       1 calls)
     hinit0       :      0.07s CPU      0.08s WALL (       1 calls)

     Called by electrons:
     c_bands      :      3.09s CPU      3.46s WALL (       1 calls)
     v_of_rho     :      0.00s CPU      0.00s WALL (       1 calls)
     newd         :      0.00s CPU      0.00s WALL (       1 calls)
     PAW_pot      :      0.02s CPU      0.03s WALL (       1 calls)

     Called by c_bands:
     init_us_2    :      0.00s CPU      0.00s WALL (      91 calls)
     init_us_2:cp :      0.00s CPU      0.00s WALL (      91 calls)
     cegterg      :      2.87s CPU      3.00s WALL (     116 calls)

     Called by *egterg:
     cdiaghg      :      1.08s CPU      1.13s WALL (    1773 calls)
     h_psi        :      1.45s CPU      1.51s WALL (    1889 calls)
     s_psi        :      0.02s CPU      0.02s WALL (    1889 calls)
     g_psi        :      0.02s CPU      0.02s WALL (    1682 calls)

     Called by h_psi:
     h_psi:calbec :      0.07s CPU      0.08s WALL (    1889 calls)
     vloc_psi     :      1.34s CPU      1.40s WALL (    1889 calls)
     add_vuspsi   :      0.02s CPU      0.03s WALL (    1889 calls)

     General routines
     calbec       :      0.07s CPU      0.07s WALL (    1889 calls)
     fft          :      0.05s CPU      0.05s WALL (      13 calls)
     ffts         :      0.03s CPU      0.03s WALL (       1 calls)
     fftw         :      1.22s CPU      1.27s WALL (   51630 calls)
     interpolate  :      0.03s CPU      0.03s WALL (       1 calls)
     davcio       :      0.00s CPU      0.19s WALL (     182 calls)

     Parallel routines

     PWSCF        :      3.57s CPU      4.85s WALL


   This run was terminated on:  22:41:29  15May2024            

=------------------------------------------------------------------------------=
   JOB DONE.
=------------------------------------------------------------------------------=
