
     Program PWSCF v.7.1 starts on 15May2024 at 22:41:34 

     This program is part of the open-source Quantum ESPRESSO suite
     for quantum simulation of materials; please cite
         "P. Giannozzi et al., J. Phys.:Condens. Matter 21 395502 (2009);
         "P. Giannozzi et al., J. Phys.:Condens. Matter 29 465901 (2017);
         "P. Giannozzi et al., J. Chem. Phys. 152 154105 (2020);
          URL http://www.quantum-espresso.org", 
     in publications or presentations arising from this work. More details at
     http://www.quantum-espresso.org/quote

     Parallel version (MPI & OpenMP), running on      10 processor cores
     Number of MPI processes:                10
     Threads/MPI process:                     1

     MPI processes distributed on     1 nodes
     14548 MiB available memory on the printing compute node when the environment starts

     Waiting for input...
     Reading input from standard input

     Current dimensions of program PWSCF are:
     Max number of different atomic species (ntypx) = 10
     Max number of k-points (npk) =  40000
     Max angular momentum in pseudopotentials (lmaxx) =  4
     file Ce.pbe-spdn-kjpaw_psl.1.0.0.UPF: wavefunction(s)  5D renormalized
     Message from routine setup:
     using ibrav=0 with symmetry is DISCOURAGED, use correct ibrav instead

     R & G space division:  proc/nbgrp/npool/nimage =      10
     Subspace diagonalization in iterative solution of the eigenvalue problem:
     a serial algorithm will be used


     Parallelization info
     --------------------
     sticks:   dense  smooth     PW     G-vecs:    dense   smooth      PW
     Min          59      48     14                 1099      820     140
     Max          60      49     15                 1104      823     143
     Sum         593     489    149                11019     8217    1419

     Using Slab Decomposition



     bravais-lattice index     =            0
     lattice parameter (alat)  =       6.4667  a.u.
     unit-cell volume          =     270.4257 (a.u.)^3
     number of atoms/cell      =            1
     number of atomic types    =            1
     number of electrons       =        11.00
     number of Kohn-Sham states=           26
     kinetic-energy cutoff     =      37.0000  Ry
     charge density cutoff     =     179.0000  Ry
     scf convergence threshold =      7.3E-05
     mixing beta               =       0.7000
     number of iterations used =            8  plain     mixing
     Exchange-correlation= SLA  PW   PBX  PBC
                           (   1   4   3   4   0   0   0)

     celldm(1)=   6.466699  celldm(2)=   0.000000  celldm(3)=   0.000000
     celldm(4)=   0.000000  celldm(5)=   0.000000  celldm(6)=   0.000000

     crystal axes: (cart. coord. in units of alat)
               a(1) = (   1.000000   0.000000   0.000000 )  
               a(2) = (   0.000000   1.000000   0.000000 )  
               a(3) = (   0.000000   0.000000   1.000000 )  

     reciprocal axes: (cart. coord. in units 2 pi/alat)
               b(1) = (  1.000000  0.000000  0.000000 )  
               b(2) = (  0.000000  1.000000  0.000000 )  
               b(3) = (  0.000000  0.000000  1.000000 )  


     PseudoPot. # 1 for Ce read from file:
     ./../../../../pseudo/psl100_PBE/Ce.pbe-spdn-kjpaw_psl.1.0.0.UPF
     MD5 check sum: 1a25380276e46fcecd5a173acdad072c
     Pseudo is Projector augmented-wave + core cor, Zval = 11.0
     Generated using 'atomic' code by A. Dal Corso  v.7.2
     Shape of augmentation charge: PSQ
     Using radial grid of 1255 points,  6 beta functions with: 
                l(1) =   0
                l(2) =   0
                l(3) =   1
                l(4) =   1
                l(5) =   2
                l(6) =   2
     Q(r) pseudized with 0 coefficients 


     atomic species   valence    mass     pseudopotential
        Ce            11.00   140.11600     Ce( 1.00)

     48 Sym. Ops., with inversion, found



   Cartesian axes

     site n.     atom                  positions (alat units)
         1           Ce  tau(   1) = (   0.0000000   0.0000000   0.0000000  )

     number of k points=    35  Methfessel-Paxton smearing, width (Ry)=  0.0200
                       cart. coord. in units 2pi/alat
        k(    1) = (   0.0000000   0.0000000   0.0000000), wk =   0.0027435
        k(    2) = (   0.0000000   0.0000000   0.1111111), wk =   0.0164609
        k(    3) = (   0.0000000   0.0000000   0.2222222), wk =   0.0164609
        k(    4) = (   0.0000000   0.0000000   0.3333333), wk =   0.0164609
        k(    5) = (   0.0000000   0.0000000   0.4444444), wk =   0.0164609
        k(    6) = (   0.0000000   0.1111111   0.1111111), wk =   0.0329218
        k(    7) = (   0.0000000   0.1111111   0.2222222), wk =   0.0658436
        k(    8) = (   0.0000000   0.1111111   0.3333333), wk =   0.0658436
        k(    9) = (   0.0000000   0.1111111   0.4444444), wk =   0.0658436
        k(   10) = (   0.0000000   0.2222222   0.2222222), wk =   0.0329218
        k(   11) = (   0.0000000   0.2222222   0.3333333), wk =   0.0658436
        k(   12) = (   0.0000000   0.2222222   0.4444444), wk =   0.0658436
        k(   13) = (   0.0000000   0.3333333   0.3333333), wk =   0.0329218
        k(   14) = (   0.0000000   0.3333333   0.4444444), wk =   0.0658436
        k(   15) = (   0.0000000   0.4444444   0.4444444), wk =   0.0329218
        k(   16) = (   0.1111111   0.1111111   0.1111111), wk =   0.0219479
        k(   17) = (   0.1111111   0.1111111   0.2222222), wk =   0.0658436
        k(   18) = (   0.1111111   0.1111111   0.3333333), wk =   0.0658436
        k(   19) = (   0.1111111   0.1111111   0.4444444), wk =   0.0658436
        k(   20) = (   0.1111111   0.2222222   0.2222222), wk =   0.0658436
        k(   21) = (   0.1111111   0.2222222   0.3333333), wk =   0.1316872
        k(   22) = (   0.1111111   0.2222222   0.4444444), wk =   0.1316872
        k(   23) = (   0.1111111   0.3333333   0.3333333), wk =   0.0658436
        k(   24) = (   0.1111111   0.3333333   0.4444444), wk =   0.1316872
        k(   25) = (   0.1111111   0.4444444   0.4444444), wk =   0.0658436
        k(   26) = (   0.2222222   0.2222222   0.2222222), wk =   0.0219479
        k(   27) = (   0.2222222   0.2222222   0.3333333), wk =   0.0658436
        k(   28) = (   0.2222222   0.2222222   0.4444444), wk =   0.0658436
        k(   29) = (   0.2222222   0.3333333   0.3333333), wk =   0.0658436
        k(   30) = (   0.2222222   0.3333333   0.4444444), wk =   0.1316872
        k(   31) = (   0.2222222   0.4444444   0.4444444), wk =   0.0658436
        k(   32) = (   0.3333333   0.3333333   0.3333333), wk =   0.0219479
        k(   33) = (   0.3333333   0.3333333   0.4444444), wk =   0.0658436
        k(   34) = (   0.3333333   0.4444444   0.4444444), wk =   0.0658436
        k(   35) = (   0.4444444   0.4444444   0.4444444), wk =   0.0219479

     Dense  grid:    11019 G-vectors     FFT dimensions: (  27,  27,  27)

     Smooth grid:     8217 G-vectors     FFT dimensions: (  25,  25,  25)

     Estimated max dynamical RAM per process >       6.31 MB

     Estimated total dynamical RAM >      63.13 MB

     Initial potential from superposition of free atoms

     starting charge      10.9735, renormalised to      11.0000
     Starting wfcs are   13 randomized atomic wfcs +   13 random wfcs
     Checking if some PAW data can be deallocated... 

     total cpu time spent up to now is        0.4 secs

     per-process dynamical memory:    13.7 Mb

     Self-consistent Calculation

     iteration #  1     ecut=    37.00 Ry     beta= 0.70
     Davidson diagonalization with overlap
     ethr =  1.00E-02,  avg # of iterations =  6.9

     Threshold (ethr) on eigenvalues was too large:
     Diagonalizing with lowered threshold

     Davidson diagonalization with overlap
     ethr =  3.95E-05,  avg # of iterations =  4.0

     total cpu time spent up to now is        1.4 secs

     total energy              =    -471.69880619 Ry
     estimated scf accuracy    <       0.00451358 Ry

     iteration #  2     ecut=    37.00 Ry     beta= 0.70
     Davidson diagonalization with overlap
     ethr =  4.10E-05,  avg # of iterations =  1.5

     total cpu time spent up to now is        1.7 secs

     total energy              =    -471.69983061 Ry
     estimated scf accuracy    <       0.00028925 Ry

     iteration #  3     ecut=    37.00 Ry     beta= 0.70
     Davidson diagonalization with overlap
     ethr =  2.63E-06,  avg # of iterations =  3.0

     total cpu time spent up to now is        2.0 secs

     End of self-consistent calculation

          k = 0.0000 0.0000 0.0000 (  1021 PWs)   bands (ev):

   -25.4050  -7.5276  -7.5276  -7.5276   6.4838   8.6695   8.6695  15.2744
    15.2744  15.2744  19.3795  19.3795  19.3795  23.4937  23.6996  23.6996
    23.6996  24.7109  24.7109  31.3218  35.6756  35.6756  35.6756  36.5624
    36.5624  36.5625

          k = 0.0000 0.0000 0.1111 (  1021 PWs)   bands (ev):

   -25.3891  -7.6989  -7.5131  -7.5131   6.7358   8.7418   8.9945  14.6862
    14.6862  15.3128  18.4327  20.0012  20.0012  21.8482  24.0950  24.1343
    24.1343  25.5181  26.9008  30.4981  33.6982  33.6982  34.4423  35.3851
    36.8733  38.3841

          k = 0.0000 0.0000 0.2222 (  1017 PWs)   bands (ev):

   -25.3486  -8.1073  -7.4759  -7.4759   7.3200   8.9366   9.8963  13.6431
    13.6431  15.4129  17.0686  19.9755  21.0433  21.0433  24.4032  25.4544
    25.4544  27.8586  29.1568  29.7893  30.4312  31.7955  31.7955  33.5668
    38.7300  38.8690

          k = 0.0000 0.0000 0.3333 (  1032 PWs)   bands (ev):

   -25.3019  -8.5355  -7.4332  -7.4332   7.9939   9.1829  10.8048  12.7850
    12.7850  15.5323  16.6588  18.5906  21.8684  21.8684  23.8460  27.1207
    27.1207  27.5180  28.0880  29.7187  30.8998  30.8998  32.8423  33.3000
    38.7239  38.8916

          k = 0.0000 0.0000 0.4444 (  1032 PWs)   bands (ev):

   -25.2710  -8.7979  -7.4049  -7.4049   8.5425   9.3618  10.9725  12.3214
    12.3214  15.6137  17.8384  17.8435  21.5710  22.3625  22.3625  27.0239
    27.5116  27.6203  27.6203  29.4568  32.2303  32.2303  35.6522  36.0388
    36.2961  36.2962

          k = 0.0000 0.1111 0.1111 (  1019 PWs)   bands (ev):

   -25.3734  -7.6925  -7.6738  -7.4986   6.9902   8.9433   9.1816  14.0525
    14.6031  14.8819  19.0206  19.0410  20.6587  21.8777  23.0767  24.4996
    25.2223  26.6038  27.9426  29.4544  31.9976  33.9274  34.4423  35.4105
    36.0959  37.0278

          k = 0.0000 0.1111 0.2222 (  1028 PWs)   bands (ev):

   -25.3330  -8.0894  -7.6425  -7.4617   7.5678   9.1858  10.0029  13.0270
    13.6865  14.8986  17.6067  19.9297  20.5034  21.8013  24.2783  25.6616
    25.8954  27.9833  28.4333  30.1568  30.4635  30.7209  33.2566  35.1053
    35.5466  38.0935

          k = 0.0000 0.1111 0.3333 (  1034 PWs)   bands (ev):

   -25.2865  -8.5149  -7.5964  -7.4192   8.2278   9.4429  10.6098  12.6225
    12.8448  15.0344  16.9696  19.1894  20.6824  22.6878  24.6806  26.0853
    26.2301  27.9854  28.1617  29.4131  31.3136  32.1446  32.7982  34.7708
    35.7193  38.7496

          k = 0.0000 0.1111 0.4444 (  1029 PWs)   bands (ev):

   -25.2556  -8.7759  -7.5659  -7.3912   8.7989   9.6632  10.2863  12.3860
    12.7732  15.1310  17.8408  18.4827  21.0623  22.1240  23.2353  25.5860
    26.2319  28.1976  29.5443  30.6744  31.8813  32.4985  33.9785  35.0424
    36.4738  36.9816

          k = 0.0000 0.2222 0.2222 (  1023 PWs)   bands (ev):

   -25.2930  -8.0622  -8.0219  -7.4254   8.0761   9.5887  10.5838  12.1631
    13.6678  14.0754  18.0970  18.6966  21.2177  23.2060  23.7827  26.4692
    26.4989  26.9463  28.2037  29.2608  31.0279  31.4824  33.4646  35.0256
    37.2574  38.0264

          k = 0.0000 0.2222 0.3333 (  1025 PWs)   bands (ev):

   -25.2469  -8.4622  -7.9871  -7.3837   8.5758   9.5750  11.0046  12.5483
    13.0008  14.0835  17.3651  19.1969  20.6442  23.8965  24.5354  25.5912
    25.7756  26.8748  28.4159  29.8857  30.9719  33.0707  34.4096  35.6330
    36.2054  38.2414

          k = 0.0000 0.2222 0.4444 (  1033 PWs)   bands (ev):

   -25.2164  -8.7194  -7.9517  -7.3561   8.9545   9.3565  10.9558  12.5586
    13.3412  14.1932  17.7186  19.7781  20.2159  22.0056  23.7846  24.9657
    25.4693  28.9289  30.4925  30.9065  31.2165  32.8211  33.4417  34.8150
    37.0730  37.4070

          k = 0.0000 0.3333 0.3333 (  1029 PWs)   bands (ev):

   -25.2012  -8.4143  -8.3856  -7.3428   8.4823   9.4410  12.5013  12.7567
    13.1120  13.3515  17.3088  18.7728  21.3200  23.1483  24.4110  25.0595
    26.4400  27.2726  27.4365  29.1288  33.5911  33.8436  34.6136  36.1759
    37.7440  37.9443

          k = 0.0000 0.3333 0.4444 (  1039 PWs)   bands (ev):

   -25.1710  -8.6537  -8.3590  -7.3158   8.1739   9.6154  12.7481  12.7736
    13.3819  13.8138  17.3201  19.6372  20.9583  21.8716  22.5375  25.2169
    26.0252  28.2586  28.7684  31.5290  31.7529  34.1922  34.5680  36.5929
    37.2156  37.9268

          k = 0.0000 0.4444 0.4444 (  1036 PWs)   bands (ev):

   -25.1410  -8.6119  -8.6076  -7.2892   7.7014   9.8577  12.9147  12.9483
    14.1062  14.1317  17.1932  20.1831  20.6011  21.8478  21.9106  23.0702
    26.5694  28.8262  30.4635  31.2068  32.0750  34.6664  35.1416  35.1651
    37.3307  37.4225

          k = 0.1111 0.1111 0.1111 (  1027 PWs)   bands (ev):

   -25.3576  -7.6858  -7.6584  -7.6584   7.2496   9.2511   9.2511  13.9137
    14.2281  14.2281  19.4980  19.7791  19.7791  22.5155  22.5155  24.1412
    26.1891  28.1768  28.1768  28.2042  32.8640  33.9854  33.9854  34.1421
    34.1421  37.1352

          k = 0.1111 0.1111 0.2222 (  1036 PWs)   bands (ev):

   -25.3174  -8.0716  -7.6353  -7.6191   7.8255   9.4412  10.0890  13.0849
    13.0945  14.3031  18.2679  20.3814  20.6368  21.4769  24.0986  25.1265
    26.4647  27.1967  29.2685  30.4915  30.9845  31.6993  32.2987  34.4028
    36.2079  36.8040

          k = 0.1111 0.1111 0.3333 (  1031 PWs)   bands (ev):

   -25.2710  -8.4945  -7.5891  -7.5737   8.4772   9.6929  10.5304  12.1528
    13.0932  14.4718  17.4649  19.6285  20.9676  22.2350  24.4979  25.2874
    26.9005  27.2281  28.8600  30.5015  30.6729  32.5868  32.8543  35.6122
    35.8064  36.8637

          k = 0.1111 0.1111 0.4444 (  1026 PWs)   bands (ev):

   -25.2403  -8.7541  -7.5584  -7.5438   9.1154   9.8947  10.0684  11.6167
    13.6787  14.5940  18.0004  18.9621  21.1522  22.5658  22.7677  23.9155
    27.8588  28.5296  29.2991  31.0902  31.4403  33.1772  33.4861  35.2027
    35.3552  36.5543

          k = 0.1111 0.2222 0.2222 (  1026 PWs)   bands (ev):

   -25.2776  -8.0446  -8.0046  -7.5877   8.3302   9.8665  10.6195  12.2209
    13.1847  13.3798  19.0567  19.2763  21.3953  22.5045  23.7991  25.0690
    25.7003  28.4203  28.6092  30.4845  31.2294  32.0087  33.5609  34.2774
    35.2538  36.4136

          k = 0.1111 0.2222 0.3333 (  1029 PWs)   bands (ev):

   -25.2316  -8.4424  -7.9702  -7.5429   8.7760   9.8869  11.0143  11.8726
    13.3228  13.5085  18.1158  19.8242  20.8871  22.6566  24.2666  25.3830
    26.2063  27.4777  28.1729  30.1984  31.6811  33.0610  34.1345  35.7078
    36.3016  37.1734

          k = 0.1111 0.2222 0.4444 (  1030 PWs)   bands (ev):

   -25.2011  -8.6981  -7.9351  -7.5133   9.0342   9.7873  11.0022  11.4233
    13.6488  14.4537  18.1016  20.2602  20.3562  21.7166  23.0825  24.6537
    26.7046  29.1487  29.9725  30.4604  32.0107  32.5838  33.2707  35.3738
    36.0593  36.4634

          k = 0.1111 0.3333 0.3333 (  1027 PWs)   bands (ev):

   -25.1860  -8.3949  -8.3666  -7.4991   8.5772   9.8733  11.8989  11.9323
    13.3662  13.7034  18.2138  19.1199  20.9440  22.7367  24.5195  25.9866
    26.5110  26.6654  28.0334  28.3881  33.9400  34.8721  34.9647  35.4753
    36.1692  36.4598

          k = 0.1111 0.3333 0.4444 (  1023 PWs)   bands (ev):

   -25.1559  -8.6331  -8.3401  -7.4701   8.2658  10.0917  11.5962  12.0480
    13.6547  14.9731  17.9057  19.4480  20.5180  21.8944  23.2028  25.7520
    26.2623  27.7964  28.9129  30.7967  31.8438  33.7631  35.2099  36.1944
    36.5571  37.3728

          k = 0.1111 0.4444 0.4444 (  1030 PWs)   bands (ev):

   -25.1260  -8.5919  -8.5876  -7.4416   7.8052  10.3699  11.7713  11.7789
    15.1587  15.3262  17.5082  18.8947  20.7001  22.1412  22.9594  23.2900
    27.1412  28.9099  30.5452  30.6042  31.3531  34.3676  34.4429  34.7849
    36.3980  37.8665

          k = 0.2222 0.2222 0.2222 (  1033 PWs)   bands (ev):

   -25.2381  -8.0156  -7.9605  -7.9605   8.7378  10.6825  10.6825  12.2770
    12.2770  12.7264  19.6791  20.7803  20.7803  23.4040  23.4040  23.5355
    25.4519  28.9169  28.9169  30.5077  32.6816  33.0091  33.0092  34.5857
    34.5857  34.7865

          k = 0.2222 0.2222 0.3333 (  1019 PWs)   bands (ev):

   -25.1924  -8.3915  -7.9422  -7.9095   8.9525  10.5996  10.8439  11.5932
    12.6846  13.6676  18.9818  20.2132  21.5746  22.6095  23.2764  25.4831
    26.4449  26.6295  29.0660  30.4221  31.7275  32.8012  34.5748  35.4683
    36.3399  36.4587

          k = 0.2222 0.2222 0.4444 (  1034 PWs)   bands (ev):

   -25.1623  -8.6437  -7.9075  -7.8758   8.9888  10.3614  10.6796  11.4494
    12.9067  15.4927  18.5342  19.4392  21.2916  22.4495  23.2808  23.8081
    28.2223  28.8579  28.9480  30.3170  31.5790  32.9596  33.3675  34.4048
    34.7264  38.4671

          k = 0.2222 0.3333 0.3333 (  1024 PWs)   bands (ev):

   -25.1473  -8.3451  -8.3180  -7.8747   8.7745  10.3139  10.8030  11.8868
    13.4710  14.2171  18.3515  20.0461  21.9555  22.5689  24.7531  24.8862
    26.6593  27.3129  27.4189  29.7683  32.2874  33.3624  34.6181  35.1527
    36.6616  36.8430

          k = 0.2222 0.3333 0.4444 (  1027 PWs)   bands (ev):

   -25.1174  -8.5805  -8.2920  -7.8414   8.5055  10.2007  10.6418  11.9343
    13.9250  16.1316  17.7856  19.0766  21.9058  22.5086  23.6770  24.9097
    27.2853  28.0870  29.3810  29.8397  31.9324  32.5154  32.5961  35.0781
    36.0643  37.4976

          k = 0.2222 0.4444 0.4444 (  1018 PWs)   bands (ev):

   -25.0878  -8.5404  -8.5364  -7.8088   8.0948  10.3285  10.4163  11.9542
    15.9881  16.6397  17.0640  18.4808  21.6155  22.8948  23.1094  24.2847
    28.8813  29.1240  29.4560  30.1469  30.8875  32.3437  33.0642  33.1968
    35.1110  36.4652

          k = 0.3333 0.3333 0.3333 (  1009 PWs)   bands (ev):

   -25.1026  -8.2979  -8.2616  -8.2616   8.8523   9.8990   9.8990  13.6113
    13.6113  14.8740  17.1039  21.8108  21.8108  23.3467  24.5539  24.5539
    27.0250  27.0250  27.5635  30.2995  31.5830  32.9607  32.9607  35.1849
    35.9227  35.9228

          k = 0.3333 0.3333 0.4444 (  1025 PWs)   bands (ev):

   -25.0730  -8.5195  -8.2469  -8.2242   8.6931   9.4102   9.8671  13.7095
    14.4126  16.3130  16.9205  19.8484  22.9966  23.5990  23.8892  24.1322
    27.4172  28.7252  29.0584  29.8476  31.0903  31.4315  32.5488  34.2974
    34.6074  37.2286

          k = 0.3333 0.4444 0.4444 (  1032 PWs)   bands (ev):

   -25.0437  -8.4808  -8.4770  -8.1984   8.4874   9.3642   9.4210  14.1313
    15.5118  16.3348  17.5859  19.4828  21.6995  23.9381  24.1143  24.7927
    28.6033  29.1690  29.3310  29.6648  30.4804  31.8147  32.0262  32.0579
    35.5873  35.7441

          k = 0.4444 0.4444 0.4444 (  1034 PWs)   bands (ev):

   -25.0145  -8.4427  -8.4376  -8.4376   8.7537   8.9004   8.9004  14.6306
    16.4810  16.4810  18.2370  20.0107  20.0107  24.9865  25.0332  25.0332
    27.4241  29.3819  29.3819  30.0817  30.5582  31.0658  31.0658  33.0262
    36.0325  36.0325

     the Fermi energy is     9.6984 ev

!    total energy              =    -471.69987517 Ry
     total all-electron energy =    -17721.224604 Ry
     estimated scf accuracy    <       0.00001196 Ry
     smearing contrib. (-TS)   =       0.00010080 Ry
     internal energy E=F+TS    =    -471.69997597 Ry

     The total energy is F=E-TS. E is the sum of the following terms:
     one-electron contribution =      -9.18204041 Ry
     hartree contribution      =       9.46135256 Ry
     xc contribution           =     -73.11419132 Ry
     ewald contribution        =     -53.08936901 Ry
     one-center paw contrib.   =    -345.77572779 Ry

     convergence has been achieved in   3 iterations

     Writing all to output data dir ./work/POSCAR.save/

     init_run     :      0.21s CPU      0.22s WALL (       1 calls)
     electrons    :      1.20s CPU      1.63s WALL (       1 calls)

     Called by init_run:
     wfcinit      :      0.06s CPU      0.06s WALL (       1 calls)
     potinit      :      0.07s CPU      0.07s WALL (       1 calls)
     hinit0       :      0.08s CPU      0.08s WALL (       1 calls)

     Called by electrons:
     c_bands      :      1.00s CPU      1.31s WALL (       4 calls)
     sum_band     :      0.12s CPU      0.13s WALL (       4 calls)
     v_of_rho     :      0.00s CPU      0.00s WALL (       4 calls)
     newd         :      0.01s CPU      0.01s WALL (       4 calls)
     PAW_pot      :      0.10s CPU      0.15s WALL (       4 calls)
     mix_rho      :      0.00s CPU      0.00s WALL (       4 calls)

     Called by c_bands:
     init_us_2    :      0.01s CPU      0.01s WALL (     315 calls)
     init_us_2:cp :      0.01s CPU      0.01s WALL (     315 calls)
     cegterg      :      0.98s CPU      1.02s WALL (     140 calls)

     Called by *egterg:
     cdiaghg      :      0.32s CPU      0.33s WALL (     646 calls)
     h_psi        :      0.55s CPU      0.58s WALL (     716 calls)
     s_psi        :      0.01s CPU      0.01s WALL (     716 calls)
     g_psi        :      0.00s CPU      0.00s WALL (     541 calls)

     Called by h_psi:
     h_psi:calbec :      0.03s CPU      0.03s WALL (     716 calls)
     vloc_psi     :      0.51s CPU      0.54s WALL (     716 calls)
     add_vuspsi   :      0.01s CPU      0.01s WALL (     716 calls)

     General routines
     calbec       :      0.03s CPU      0.04s WALL (     856 calls)
     fft          :      0.06s CPU      0.06s WALL (      51 calls)
     ffts         :      0.03s CPU      0.03s WALL (       8 calls)
     fftw         :      0.55s CPU      0.58s WALL (   25474 calls)
     interpolate  :      0.03s CPU      0.03s WALL (       4 calls)

     Parallel routines

     PWSCF        :      1.56s CPU      2.51s WALL


   This run was terminated on:  22:41:37  15May2024            

=------------------------------------------------------------------------------=
   JOB DONE.
=------------------------------------------------------------------------------=
