
     Program PWSCF v.7.1 starts on 15May2024 at 22:41:38 

     This program is part of the open-source Quantum ESPRESSO suite
     for quantum simulation of materials; please cite
         "P. Giannozzi et al., J. Phys.:Condens. Matter 21 395502 (2009);
         "P. Giannozzi et al., J. Phys.:Condens. Matter 29 465901 (2017);
         "P. Giannozzi et al., J. Chem. Phys. 152 154105 (2020);
          URL http://www.quantum-espresso.org", 
     in publications or presentations arising from this work. More details at
     http://www.quantum-espresso.org/quote

     Parallel version (MPI & OpenMP), running on      10 processor cores
     Number of MPI processes:                10
     Threads/MPI process:                     1

     MPI processes distributed on     1 nodes
     14556 MiB available memory on the printing compute node when the environment starts

     Waiting for input...
     Reading input from standard input

     Current dimensions of program PWSCF are:
     Max number of different atomic species (ntypx) = 10
     Max number of k-points (npk) =  40000
     Max angular momentum in pseudopotentials (lmaxx) =  4

     Atomic positions and unit cell read from directory:
     ./work/POSCAR.save/

     file Ce.pbe-spdn-kjpaw_psl.1.0.0.UPF: wavefunction(s)  5D renormalized
     Message from routine setup:
     using ibrav=0 with symmetry is DISCOURAGED, use correct ibrav instead

     R & G space division:  proc/nbgrp/npool/nimage =      10
     Subspace diagonalization in iterative solution of the eigenvalue problem:
     a serial algorithm will be used


     Parallelization info
     --------------------
     sticks:   dense  smooth     PW     G-vecs:    dense   smooth      PW
     Min          59      48     15                 1099      820     150
     Max          60      49     18                 1104      823     151
     Sum         593     489    161                11019     8217    1503

     Using Slab Decomposition



     bravais-lattice index     =            0
     lattice parameter (alat)  =       6.4667  a.u.
     unit-cell volume          =     270.4257 (a.u.)^3
     number of atoms/cell      =            1
     number of atomic types    =            1
     number of electrons       =        11.00
     number of Kohn-Sham states=           26
     kinetic-energy cutoff     =      37.0000  Ry
     charge density cutoff     =     179.0000  Ry
     Exchange-correlation= SLA  PW   PBX  PBC
                           (   1   4   3   4   0   0   0)

     celldm(1)=   6.466699  celldm(2)=   0.000000  celldm(3)=   0.000000
     celldm(4)=   0.000000  celldm(5)=   0.000000  celldm(6)=   0.000000

     crystal axes: (cart. coord. in units of alat)
               a(1) = (   1.000000   0.000000   0.000000 )  
               a(2) = (   0.000000   1.000000   0.000000 )  
               a(3) = (   0.000000   0.000000   1.000000 )  

     reciprocal axes: (cart. coord. in units 2 pi/alat)
               b(1) = (  1.000000  0.000000  0.000000 )  
               b(2) = (  0.000000  1.000000  0.000000 )  
               b(3) = (  0.000000  0.000000  1.000000 )  


     PseudoPot. # 1 for Ce read from file:
     ./../../../../pseudo/psl100_PBE/Ce.pbe-spdn-kjpaw_psl.1.0.0.UPF
     MD5 check sum: 1a25380276e46fcecd5a173acdad072c
     Pseudo is Projector augmented-wave + core cor, Zval = 11.0
     Generated using 'atomic' code by A. Dal Corso  v.7.2
     Shape of augmentation charge: PSQ
     Using radial grid of 1255 points,  6 beta functions with: 
                l(1) =   0
                l(2) =   0
                l(3) =   1
                l(4) =   1
                l(5) =   2
                l(6) =   2
     Q(r) pseudized with 0 coefficients 


     atomic species   valence    mass     pseudopotential
        Ce            11.00   140.11600     Ce( 1.00)

     48 Sym. Ops., with inversion, found



   Cartesian axes

     site n.     atom                  positions (alat units)
         1           Ce  tau(   1) = (   0.0000000   0.0000000   0.0000000  )

     number of k points=    91  Methfessel-Paxton smearing, width (Ry)=  0.0200
                       cart. coord. in units 2pi/alat
        k(    1) = (   0.0000000   0.5000000   0.5000000), wk =   0.0219780
        k(    2) = (   0.0500000   0.5000000   0.5000000), wk =   0.0219780
        k(    3) = (   0.1000000   0.5000000   0.5000000), wk =   0.0219780
        k(    4) = (   0.1500000   0.5000000   0.5000000), wk =   0.0219780
        k(    5) = (   0.2000000   0.5000000   0.5000000), wk =   0.0219780
        k(    6) = (   0.2500000   0.5000000   0.5000000), wk =   0.0219780
        k(    7) = (   0.3000000   0.5000000   0.5000000), wk =   0.0219780
        k(    8) = (   0.3500000   0.5000000   0.5000000), wk =   0.0219780
        k(    9) = (   0.4000000   0.5000000   0.5000000), wk =   0.0219780
        k(   10) = (   0.4500000   0.5000000   0.5000000), wk =   0.0219780
        k(   11) = (   0.5000000   0.5000000   0.5000000), wk =   0.0219780
        k(   12) = (   0.4750000   0.4750000   0.4750000), wk =   0.0219780
        k(   13) = (   0.4500000   0.4500000   0.4500000), wk =   0.0219780
        k(   14) = (   0.4250000   0.4250000   0.4250000), wk =   0.0219780
        k(   15) = (   0.4000000   0.4000000   0.4000000), wk =   0.0219780
        k(   16) = (   0.3750000   0.3750000   0.3750000), wk =   0.0219780
        k(   17) = (   0.3500000   0.3500000   0.3500000), wk =   0.0219780
        k(   18) = (   0.3250000   0.3250000   0.3250000), wk =   0.0219780
        k(   19) = (   0.3000000   0.3000000   0.3000000), wk =   0.0219780
        k(   20) = (   0.2750000   0.2750000   0.2750000), wk =   0.0219780
        k(   21) = (   0.2500000   0.2500000   0.2500000), wk =   0.0219780
        k(   22) = (   0.2250000   0.2250000   0.2250000), wk =   0.0219780
        k(   23) = (   0.2000000   0.2000000   0.2000000), wk =   0.0219780
        k(   24) = (   0.1750000   0.1750000   0.1750000), wk =   0.0219780
        k(   25) = (   0.1500000   0.1500000   0.1500000), wk =   0.0219780
        k(   26) = (   0.1250000   0.1250000   0.1250000), wk =   0.0219780
        k(   27) = (   0.1000000   0.1000000   0.1000000), wk =   0.0219780
        k(   28) = (   0.0750000   0.0750000   0.0750000), wk =   0.0219780
        k(   29) = (   0.0500000   0.0500000   0.0500000), wk =   0.0219780
        k(   30) = (   0.0250000   0.0250000   0.0250000), wk =   0.0219780
        k(   31) = (   0.0000000   0.0000000   0.0000000), wk =   0.0219780
        k(   32) = (   0.0500000   0.0000000   0.0000000), wk =   0.0219780
        k(   33) = (   0.1000000   0.0000000   0.0000000), wk =   0.0219780
        k(   34) = (   0.1500000   0.0000000   0.0000000), wk =   0.0219780
        k(   35) = (   0.2000000   0.0000000   0.0000000), wk =   0.0219780
        k(   36) = (   0.2500000   0.0000000   0.0000000), wk =   0.0219780
        k(   37) = (   0.3000000   0.0000000   0.0000000), wk =   0.0219780
        k(   38) = (   0.3500000   0.0000000   0.0000000), wk =   0.0219780
        k(   39) = (   0.4000000   0.0000000   0.0000000), wk =   0.0219780
        k(   40) = (   0.4500000   0.0000000   0.0000000), wk =   0.0219780
        k(   41) = (   0.5000000   0.0000000   0.0000000), wk =   0.0219780
        k(   42) = (   0.5000000   0.0500000   0.0000000), wk =   0.0219780
        k(   43) = (   0.5000000   0.1000000   0.0000000), wk =   0.0219780
        k(   44) = (   0.5000000   0.1500000   0.0000000), wk =   0.0219780
        k(   45) = (   0.5000000   0.2000000   0.0000000), wk =   0.0219780
        k(   46) = (   0.5000000   0.2500000   0.0000000), wk =   0.0219780
        k(   47) = (   0.5000000   0.3000000   0.0000000), wk =   0.0219780
        k(   48) = (   0.5000000   0.3500000   0.0000000), wk =   0.0219780
        k(   49) = (   0.5000000   0.4000000   0.0000000), wk =   0.0219780
        k(   50) = (   0.5000000   0.4500000   0.0000000), wk =   0.0219780
        k(   51) = (   0.5000000   0.5000000   0.0000000), wk =   0.0219780
        k(   52) = (   0.4750000   0.4750000   0.0000000), wk =   0.0219780
        k(   53) = (   0.4500000   0.4500000   0.0000000), wk =   0.0219780
        k(   54) = (   0.4250000   0.4250000   0.0000000), wk =   0.0219780
        k(   55) = (   0.4000000   0.4000000   0.0000000), wk =   0.0219780
        k(   56) = (   0.3750000   0.3750000   0.0000000), wk =   0.0219780
        k(   57) = (   0.3500000   0.3500000   0.0000000), wk =   0.0219780
        k(   58) = (   0.3250000   0.3250000   0.0000000), wk =   0.0219780
        k(   59) = (   0.3000000   0.3000000   0.0000000), wk =   0.0219780
        k(   60) = (   0.2750000   0.2750000   0.0000000), wk =   0.0219780
        k(   61) = (   0.2500000   0.2500000   0.0000000), wk =   0.0219780
        k(   62) = (   0.2250000   0.2250000   0.0000000), wk =   0.0219780
        k(   63) = (   0.2000000   0.2000000   0.0000000), wk =   0.0219780
        k(   64) = (   0.1750000   0.1750000   0.0000000), wk =   0.0219780
        k(   65) = (   0.1500000   0.1500000   0.0000000), wk =   0.0219780
        k(   66) = (   0.1250000   0.1250000   0.0000000), wk =   0.0219780
        k(   67) = (   0.1000000   0.1000000   0.0000000), wk =   0.0219780
        k(   68) = (   0.0750000   0.0750000   0.0000000), wk =   0.0219780
        k(   69) = (   0.0500000   0.0500000   0.0000000), wk =   0.0219780
        k(   70) = (   0.0250000   0.0250000   0.0000000), wk =   0.0219780
        k(   71) = (   0.0000000   0.0000000   0.0000000), wk =   0.0219780
        k(   72) = (   0.0250000   0.0250000   0.0250000), wk =   0.0219780
        k(   73) = (   0.0500000   0.0500000   0.0500000), wk =   0.0219780
        k(   74) = (   0.0750000   0.0750000   0.0750000), wk =   0.0219780
        k(   75) = (   0.1000000   0.1000000   0.1000000), wk =   0.0219780
        k(   76) = (   0.1250000   0.1250000   0.1250000), wk =   0.0219780
        k(   77) = (   0.1500000   0.1500000   0.1500000), wk =   0.0219780
        k(   78) = (   0.1750000   0.1750000   0.1750000), wk =   0.0219780
        k(   79) = (   0.2000000   0.2000000   0.2000000), wk =   0.0219780
        k(   80) = (   0.2250000   0.2250000   0.2250000), wk =   0.0219780
        k(   81) = (   0.2500000   0.2500000   0.2500000), wk =   0.0219780
        k(   82) = (   0.2750000   0.2750000   0.2750000), wk =   0.0219780
        k(   83) = (   0.3000000   0.3000000   0.3000000), wk =   0.0219780
        k(   84) = (   0.3250000   0.3250000   0.3250000), wk =   0.0219780
        k(   85) = (   0.3500000   0.3500000   0.3500000), wk =   0.0219780
        k(   86) = (   0.3750000   0.3750000   0.3750000), wk =   0.0219780
        k(   87) = (   0.4000000   0.4000000   0.4000000), wk =   0.0219780
        k(   88) = (   0.4250000   0.4250000   0.4250000), wk =   0.0219780
        k(   89) = (   0.4500000   0.4500000   0.4500000), wk =   0.0219780
        k(   90) = (   0.4750000   0.4750000   0.4750000), wk =   0.0219780
        k(   91) = (   0.5000000   0.5000000   0.5000000), wk =   0.0219780

     Dense  grid:    11019 G-vectors     FFT dimensions: (  27,  27,  27)

     Smooth grid:     8217 G-vectors     FFT dimensions: (  25,  25,  25)

     Estimated max dynamical RAM per process >       4.59 MB

     Estimated total dynamical RAM >      45.94 MB

     The potential is recalculated from file :
     ./work/POSCAR.save/charge-density

     Starting wfcs are   13 randomized atomic wfcs +   13 random wfcs
     Checking if some PAW data can be deallocated... 

     Band Structure Calculation
     Davidson diagonalization with overlap

     ethr =  6.64E-07,  avg # of iterations = 18.7

     total cpu time spent up to now is        3.9 secs

     End of band structure calculation

          k = 0.0000 0.5000 0.5000 (  1024 PWs)   bands (ev):

   -25.1386  -8.6406  -8.6406  -7.2860   7.5787   9.9295  12.8964  12.8964
    14.3505  14.3505  17.2785  20.2847  21.4232  21.4232  21.6701  21.7679
    27.0344  29.5584  29.5584  32.9094  33.5668  33.5668  33.6639  33.7402
    38.3348  38.3348

          k = 0.0500 0.5000 0.5000 (  1032 PWs)   bands (ev):

   -25.1355  -8.6364  -8.6364  -7.3182   7.6004  10.0392  12.5365  12.5365
    14.7351  14.7351  17.2844  19.7750  21.4805  21.4805  21.7692  22.1564
    27.1347  29.5742  29.5742  32.8060  33.3475  33.3475  33.5470  33.7665
    38.6246  38.6246

          k = 0.1000 0.5000 0.5000 (  1024 PWs)   bands (ev):

   -25.1264  -8.6242  -8.6242  -7.4103   7.6648  10.3640  11.8884  11.8884
    15.4519  15.4519  17.3015  18.9089  21.6556  21.6556  21.7699  22.9359
    27.4509  29.6207  29.6207  32.5166  32.8138  32.8138  33.2352  33.8447
    36.8463  38.2728

          k = 0.1500 0.5000 0.5000 (  1028 PWs)   bands (ev):

   -25.1122  -8.6051  -8.6051  -7.5506   7.7695  10.8902  11.2267  11.2267
    16.2097  16.2097  17.3284  18.0197  21.7599  21.9560  21.9560  23.6393
    28.0143  29.6946  29.6946  32.0878  32.1603  32.1603  32.8103  33.9730
    34.9379  37.6589

          k = 0.2000 0.5000 0.5000 (  1020 PWs)   bands (ev):

   -25.0942  -8.5808  -8.5808  -7.7222   7.9098  10.6135  10.6135  11.5983
    16.9238  16.9238  17.1702  17.3628  21.7198  22.3881  22.3881  24.1887
    28.8307  29.7899  29.7899  31.5105  31.5105  31.5498  32.3470  33.1454
    34.1478  37.0629

          k = 0.2500 0.5000 0.5000 (  1016 PWs)   bands (ev):

   -25.0742  -8.5537  -8.5537  -7.9063   8.0784  10.0717  10.0717  12.4644
    16.3874  17.4015  17.5500  17.5500  21.6167  22.9450  22.9450  24.5891
    29.8486  29.8934  29.8934  30.7811  30.9408  30.9408  31.7048  31.8977
    34.3629  36.5548

          k = 0.3000 0.5000 0.5000 (  1024 PWs)   bands (ev):

   -25.0540  -8.5263  -8.5263  -8.0845   8.2640   9.6142   9.6142  13.4616
    15.6918  17.4409  18.0646  18.0646  21.3996  23.5916  23.5916  24.8770
    29.5667  29.9667  29.9667  30.5325  30.5325  30.9374  30.9672  31.4964
    34.6078  36.2067

          k = 0.3500 0.5000 0.5000 (  1016 PWs)   bands (ev):

   -25.0357  -8.5013  -8.5013  -8.2406   8.4501   9.2498   9.2498  14.5586
    15.1051  17.4770  18.4607  18.4607  21.0022  24.2546  24.2546  25.0841
    28.3899  29.9197  29.9197  30.4114  30.4114  30.4723  31.1656  32.0304
    34.8649  36.1423

          k = 0.4000 0.5000 0.5000 (  1024 PWs)   bands (ev):

   -25.0211  -8.4814  -8.4814  -8.3616   8.6140   8.9850   8.9850  14.6533
    15.7135  17.5059  18.7404  18.7404  20.3739  24.8285  24.8285  25.2271
    27.5177  29.8448  29.8448  30.1421  30.5030  30.5030  30.9197  32.8094
    35.1045  36.5633

          k = 0.4500 0.5000 0.5000 (  1048 PWs)   bands (ev):

   -25.0117  -8.4686  -8.4686  -8.4380   8.7288   8.8243   8.8243  14.3650
    16.8429  17.5247  18.9073  18.9073  19.5528  25.2096  25.2096  25.3122
    27.0070  29.8498  29.8498  29.9380  30.6433  30.6433  30.7683  33.1805
    35.2827  35.7162

          k = 0.5000 0.5000 0.5000 (  1064 PWs)   bands (ev):

   -25.0084  -8.4642  -8.4642  -8.4642   8.7704   8.7704   8.7704  14.2655
    17.5312  17.5312  18.9628  18.9628  18.9628  25.3406  25.3406  25.3406
    26.8423  29.8686  29.8686  29.8686  30.7172  30.7172  30.7172  33.2731
    35.3500  35.3500

          k = 0.4750 0.4750 0.4750 (  1052 PWs)   bands (ev):

   -25.0109  -8.4605  -8.4595  -8.4595   8.7663   8.7970   8.7970  14.3405
    17.2229  17.2229  18.8037  19.2718  19.2718  25.2667  25.2700  25.2700
    26.9646  29.7869  29.7869  30.0204  30.5711  30.7638  30.7638  33.2129
    35.5102  35.5102

          k = 0.4500 0.4500 0.4500 (  1034 PWs)   bands (ev):

   -25.0182  -8.4496  -8.4455  -8.4455   8.7569   8.8768   8.8768  14.5614
    16.6239  16.6239  18.3651  19.8686  19.8686  25.0484  25.0821  25.0821
    27.3203  29.4814  29.4814  30.1894  30.4386  30.9884  30.9884  33.0622
    35.9272  35.9272

          k = 0.4250 0.4250 0.4250 (  1028 PWs)   bands (ev):

   -25.0302  -8.4315  -8.4224  -8.4224   8.7498   9.0088   9.0088  14.9169
    15.9642  15.9642  17.7319  20.5074  20.5074  24.7227  24.8343  24.8343
    27.8513  28.9833  28.9833  29.6746  31.0284  31.3989  31.3989  32.9052
    36.2761  36.2761

          k = 0.4000 0.4000 0.4000 (  1034 PWs)   bands (ev):

   -25.0466  -8.4060  -8.3904  -8.3904   8.7537   9.1913   9.1913  15.2985
    15.2985  15.3914  16.9870  21.0991  21.0991  24.3427  24.5989  24.5989
    28.3959  28.3959  28.4811  29.1026  31.5868  31.9061  31.9061  32.9377
    36.0028  36.0028

          k = 0.3750 0.3750 0.3750 (  1033 PWs)   bands (ev):

   -25.0670  -8.3730  -8.3500  -8.3500   8.7753   9.4218   9.4218  14.6449
    14.6449  15.9576  16.2027  21.5587  21.5587  23.9496  24.4594  24.4594
    27.8000  27.8000  28.5163  29.1553  31.7668  32.4115  32.4115  33.4963
    35.7513  35.7513

          k = 0.3500 0.3500 0.3500 (  1015 PWs)   bands (ev):

   -25.0908  -8.3326  -8.3015  -8.3015   8.8166   9.6962   9.6962  14.0138
    14.0138  15.3895  16.6310  21.7933  21.7933  23.5734  24.4801  24.4801
    27.2754  27.2754  27.9390  29.8437  31.6760  32.8038  32.8038  34.4553
    35.7531  35.7531

          k = 0.3250 0.3250 0.3250 (  1015 PWs)   bands (ev):

   -25.1177  -8.2847  -8.2459  -8.2459   8.8724  10.0070  10.0070  13.4152
    13.4152  14.6266  17.3450  21.7837  21.7837  23.2422  24.5832  24.5832
    26.9519  26.9519  27.3836  30.5246  31.5357  33.0073  33.0073  35.5623
    36.0501  36.0501

          k = 0.3000 0.3000 0.3000 (  1021 PWs)   bands (ev):

   -25.1468  -8.2297  -8.1840  -8.1840   8.9274  10.3392  10.3392  12.8651
    12.8651  13.9341  18.0797  21.6111  21.6111  22.9928  24.5306  24.5306
    26.8578  27.0080  27.0080  31.1118  31.4738  33.0599  33.0599  36.4856
    36.4856  36.6201

          k = 0.2750 0.2750 0.2750 (  1027 PWs)   bands (ev):

   -25.1774  -8.1680  -8.1168  -8.1168   8.9537  10.6531  10.6531  12.4024
    12.4024  13.3560  18.7730  21.3619  21.3619  22.8855  24.2439  24.2439
    26.3663  27.4496  27.4496  31.1400  31.9276  33.0498  33.0498  36.3754
    36.5287  36.5287

          k = 0.2500 0.2500 0.2500 (  1030 PWs)   bands (ev):

   -25.2089  -8.1002  -8.0458  -8.0458   8.9107  10.8315  10.8315  12.1430
    12.1430  12.9425  19.3281  21.0865  21.0865  23.0144  23.8498  23.8498
    25.9123  28.1042  28.1042  30.9400  32.4491  33.0321  33.0321  35.3419
    35.7454  35.7454

          k = 0.2250 0.2250 0.2250 (  1027 PWs)   bands (ev):

   -25.2404  -8.0276  -7.9725  -7.9725   8.7618  10.7116  10.7116  12.2461
    12.2461  12.7367  19.6548  20.8102  20.8102  23.4487  23.4487  23.4666
    25.4979  28.8348  28.8348  30.5650  32.6816  33.0136  33.0136  34.6980
    34.6980  34.7968

          k = 0.2000 0.2000 0.2000 (  1039 PWs)   bands (ev):

   -25.2711  -7.9517  -7.8986  -7.8986   8.5017  10.3965  10.3965  12.6032
    12.6032  12.7467  19.7602  20.5458  20.5458  23.0898  23.0898  24.2297
    25.1246  29.5178  29.5178  29.8928  32.5759  32.8985  32.8985  33.8539
    33.8539  34.9824

          k = 0.1750 0.1750 0.1750 (  1021 PWs)   bands (ev):

   -25.3003  -7.8745  -7.8261  -7.8261   8.1637  10.0412  10.0412  12.9393
    13.0518  13.0518  19.7311  20.3000  20.3000  22.8012  22.8012  24.7935
    25.2090  28.9502  29.8860  29.8860  32.4945  32.6085  32.6085  33.6134
    33.6134  35.5239

          k = 0.1500 0.1500 0.1500 (  1030 PWs)   bands (ev):

   -25.3273  -7.7986  -7.7572  -7.7572   7.7950   9.7021   9.7021  13.2630
    13.5244  13.5244  19.6447  20.0767  20.0767  22.6033  22.6033  24.5054
    26.3031  27.9011  29.5462  29.5462  32.5495  32.8083  32.8083  33.7214
    33.7214  36.1603

          k = 0.1250 0.1250 0.1250 (  1027 PWs)   bands (ev):

   -25.3514  -7.7267  -7.6941  -7.6941   7.4355   9.3994   9.3994  13.6691
    13.9861  13.9861  19.5468  19.8786  19.8786  22.5140  22.5140  24.2607
    26.7192  27.5880  28.7106  28.7106  32.7206  33.5191  33.5191  33.9532
    33.9532  36.7998

          k = 0.1000 0.1000 0.1000 (  1009 PWs)   bands (ev):

   -25.3720  -7.6619  -7.6387  -7.6387   7.1130   9.1430   9.1430  14.1127
    14.4096  14.4096  19.4625  19.7087  19.7087  22.5484  22.5484  24.0601
    25.7558  27.7426  27.7426  28.7160  33.0045  34.2191  34.2191  34.4735
    34.4735  37.3784

          k = 0.0750 0.0750 0.0750 (  1018 PWs)   bands (ev):

   -25.3886  -7.6075  -7.5933  -7.5933   6.8463   8.9385   8.9385  14.5479
    14.7695  14.7695  19.4057  19.5702  19.5702  22.7169  22.7169  23.9037
    24.8648  26.7799  26.7799  29.7932  33.4380  34.5940  34.5940  35.4607
    35.4607  37.7630

          k = 0.0500 0.0500 0.0500 (  1021 PWs)   bands (ev):

   -25.4007  -7.5662  -7.5595  -7.5595   6.6480   8.7898   8.7898  14.9228
    15.0437  15.0437  19.3805  19.4672  19.4672  23.0194  23.0194  23.7918
    24.1419  25.8827  25.8827  30.6458  34.0929  35.0036  35.0036  36.4668
    36.4668  37.6273

          k = 0.0250 0.0250 0.0250 (  1021 PWs)   bands (ev):

   -25.4081  -7.5404  -7.5387  -7.5387   6.5259   8.6995   8.6995  15.1807
    15.2150  15.2150  19.3788  19.4036  19.4036  23.4225  23.4225  23.6598
    23.7247  25.1133  25.1133  31.1593  34.9774  35.4263  35.4263  36.8083
    36.8083  37.1204

          k = 0.0000 0.0000 0.0000 (  1021 PWs)   bands (ev):

   -25.4106  -7.5316  -7.5316  -7.5316   6.4847   8.6693   8.6693  15.2732
    15.2732  15.2732  19.3821  19.3821  19.3821  23.4886  23.7023  23.7023
    23.7023  24.7102  24.7102  31.3239  35.6787  35.6787  35.6787  36.5597
    36.5597  36.5597

          k = 0.0500 0.0000 0.0000 (  1021 PWs)   bands (ev):

   -25.4073  -7.5679  -7.5286  -7.5286   6.5389   8.6842   8.7351  15.1349
    15.1349  15.2812  19.1431  19.5295  19.5295  23.0146  23.6902  23.7888
    23.7888  24.8416  25.4664  31.1214  34.9251  34.9251  35.9567  36.1251
    37.0269  37.3282

          k = 0.1000 0.0000 0.0000 (  1021 PWs)   bands (ev):

   -25.3977  -7.6718  -7.5197  -7.5197   6.6917   8.7281   8.9327  14.7817
    14.7817  15.3045  18.5790  19.9030  19.9030  22.0577  24.0316  24.0530
    24.0530  25.3448  26.6289  30.6298  33.9169  33.9169  34.8346  35.6070
    36.6755  38.2407

          k = 0.1500 0.0000 0.0000 (  1013 PWs)   bands (ev):

   -25.3827  -7.8291  -7.5059  -7.5059   6.9184   8.7983   9.2571  14.3251
    14.3251  15.3412  17.9172  20.3741  20.3741  21.1478  24.2485  24.5026
    24.5026  26.2486  27.8817  30.0268  32.9690  32.9690  33.0081  34.6719
    37.6579  38.6771

          k = 0.2000 0.0000 0.0000 (  1013 PWs)   bands (ev):

   -25.3636  -8.0206  -7.4884  -7.4884   7.1910   8.8902   9.6854  13.8480
    13.8480  15.3884  17.3012  20.3170  20.8477  20.8477  24.3724  25.1299
    25.1299  27.3521  29.1926  29.4176  31.1944  32.1261  32.1261  33.8683
    38.7161  38.7993

          k = 0.2500 0.0000 0.0000 (  1029 PWs)   bands (ev):

   -25.3424  -8.2246  -7.4690  -7.4690   7.4875   8.9970  10.1618  13.3992
    13.3992  15.4417  16.8334  19.5795  21.2784  21.2784  24.3988  25.8897
    25.8897  28.4539  28.8545  29.5491  30.5456  31.4350  31.4350  33.2542
    38.7440  38.9058

          k = 0.3000 0.0000 0.0000 (  1028 PWs)   bands (ev):

   -25.3210  -8.4210  -7.4494  -7.4494   7.7932   9.1096  10.5933  13.0068
    13.0068  15.4964  16.6161  18.9480  21.6536  21.6536  24.2046  26.6750
    26.6750  28.1194  28.3663  29.4264  30.9857  30.9857  31.9232  33.0430
    38.7479  38.9408

          k = 0.3500 0.0000 0.0000 (  1032 PWs)   bands (ev):

   -25.3015  -8.5923  -7.4316  -7.4316   8.0928   9.2169  10.8786  12.6880
    12.6880  15.5469  16.7425  18.4355  21.9696  21.9696  23.5800  27.2938
    27.2938  27.3158  27.9704  29.7624  30.9465  30.9465  33.2980  33.5587
    38.6986  38.7653

          k = 0.4000 0.0000 0.0000 (  1036 PWs)   bands (ev):

   -25.2860  -8.7245  -7.4174  -7.4174   8.3622   9.3064  10.9811  12.4537
    12.4537  15.5877  17.2260  18.0558  22.2171  22.2171  22.5481  27.0414
    27.5772  27.5772  27.6791  29.6463  31.4561  31.4561  34.6184  34.7268
    37.5567  37.5567

          k = 0.4500 0.0000 0.0000 (  1032 PWs)   bands (ev):

   -25.2760  -8.8078  -7.4082  -7.4082   8.5604   9.3662  10.9681  12.3106
    12.3106  15.6143  17.8217  17.9200  21.4612  22.3788  22.3788  27.0260
    27.5009  27.6178  27.6178  29.4327  32.3331  32.3331  35.7632  36.1580
    36.1580  36.2111

          k = 0.5000 0.0000 0.0000 (  1020 PWs)   bands (ev):

   -25.2725  -8.8362  -7.4050  -7.4050   8.6355   9.3873  10.9467  12.2625
    12.2625  15.6236  17.7425  18.3434  20.9011  22.4356  22.4356  27.0473
    27.4410  27.6074  27.6074  29.3375  32.9124  32.9124  35.4182  35.4182
    36.3314  37.6205

          k = 0.5000 0.0500 0.0000 (  1030 PWs)   bands (ev):

   -25.2693  -8.8316  -7.4391  -7.4022   8.7010   9.4450  10.7376  12.2760
    12.4161  15.5151  17.8737  18.3308  20.9162  22.2395  22.6264  26.5740
    27.1367  27.3372  28.4989  29.8591  32.7502  32.9228  35.0341  35.4714
    35.7928  37.8158

          k = 0.5000 0.1000 0.0000 (  1028 PWs)   bands (ev):

   -25.2600  -8.8181  -7.5365  -7.3939   8.8640   9.6448  10.2849  12.3155
    12.7160  15.2252  18.2469  18.2874  20.9587  21.7771  23.1635  25.6732
    26.3377  28.0824  29.4667  30.7774  32.3222  32.9534  34.3651  34.4900
    35.6351  37.9259

          k = 0.5000 0.1500 0.0000 (  1032 PWs)   bands (ev):

   -25.2454  -8.7970  -7.6845  -7.3809   9.0508   9.7644  10.0400  12.3785
    13.0226  14.8295  18.1976  18.8042  21.0187  21.2521  23.9714  24.8306
    25.5876  29.0657  30.3993  31.5186  31.7044  32.9762  33.0019  33.9711
    35.9205  38.0334

          k = 0.5000 0.2000 0.0000 (  1030 PWs)   bands (ev):

   -25.2269  -8.7702  -7.8651  -7.3644   9.2242   9.2483  10.6355  12.4606
    13.3065  14.3984  18.0411  19.4587  20.8013  21.0721  24.0604  24.9797
    25.0124  29.7963  31.0500  31.2532  31.5541  31.7905  33.0644  34.3915
    36.3401  38.1559

          k = 0.5000 0.2500 0.0000 (  1024 PWs)   bands (ev):

   -25.2063  -8.7401  -8.0582  -7.3461   8.7729   9.3887  11.3811  12.5554
    13.5681  13.9816  17.8139  20.1021  20.4952  21.0717  23.3754  24.7351
    26.1387  28.7020  30.9857  31.0936  31.9709  31.9870  33.1357  35.3984
    36.8911  38.2236

          k = 0.5000 0.3000 0.0000 (  1038 PWs)   bands (ev):

   -25.1856  -8.7098  -8.2447  -7.3277   8.3603   9.5479  12.2102  12.6548
    13.6108  13.8084  17.5524  20.3494  20.6307  20.9643  22.7883  24.8692
    27.0756  27.4158  30.4917  30.5606  32.5759  33.2090  33.2983  36.5029
    37.5295  37.8196

          k = 0.5000 0.3500 0.0000 (  1038 PWs)   bands (ev):

   -25.1667  -8.6821  -8.4078  -7.3109   8.0257   9.6954  12.7488  13.0370
    13.3063  14.0218  17.3294  20.3531  20.7524  21.0069  22.3123  25.3941
    25.4582  28.7887  30.0918  30.0976  33.0184  33.2775  34.7456  36.5839
    37.4200  38.1315

          k = 0.5000 0.4000 0.0000 (  1028 PWs)   bands (ev):

   -25.1516  -8.6599  -8.5339  -7.2975   7.7797   9.8180  12.8267  13.0810
    13.7428  14.1949  17.2207  20.5138  20.5216  21.2448  21.9601  23.9539
    26.1200  29.7645  29.7985  30.2389  33.3253  33.3343  35.2248  36.2187
    36.6484  37.9824

          k = 0.5000 0.4500 0.0000 (  1032 PWs)   bands (ev):

   -25.1419  -8.6456  -8.6135  -7.2890   7.6293   9.9003  12.8783  12.9429
    14.1995  14.3099  17.2407  20.3483  20.8871  21.3793  21.7433  22.6468
    26.7683  29.5948  29.6189  31.7387  33.3772  33.5066  34.1632  35.0487
    37.5916  38.2540

          k = 0.5000 0.5000 0.0000 (  1024 PWs)   bands (ev):

   -25.1386  -8.6406  -8.6406  -7.2860   7.5787   9.9295  12.8964  12.8964
    14.3505  14.3505  17.2785  20.2847  21.4232  21.4232  21.6701  21.7679
    27.0344  29.5584  29.5584  32.9094  33.5668  33.5668  33.6639  33.7402
    38.3348  38.3348

          k = 0.4750 0.4750 0.0000 (  1024 PWs)   bands (ev):

   -25.1403  -8.6355  -8.6346  -7.2875   7.6040   9.9147  12.9000  12.9070
    14.3007  14.3054  17.2557  20.3130  20.9744  21.5278  21.7067  22.2682
    26.9071  29.3847  29.7723  32.2806  32.9176  33.9546  34.1748  34.3155
    38.0728  38.1226

          k = 0.4500 0.4500 0.0000 (  1036 PWs)   bands (ev):

   -25.1453  -8.6201  -8.6166  -7.2919   7.6790   9.8712  12.9112  12.9386
    14.1527  14.1731  17.2036  20.2576  20.6014  21.8160  21.8234  22.9243
    26.6324  28.9465  30.3145  31.4059  32.2275  34.5133  34.9735  35.0111
    37.4820  37.5728

          k = 0.4250 0.4250 0.0000 (  1033 PWs)   bands (ev):

   -25.1535  -8.5946  -8.5870  -7.2992   7.8010   9.8011  12.9312  12.9910
    13.9121  13.9616  17.1562  19.8515  20.6995  21.9954  22.2683  23.5706
    26.3761  28.3813  30.5189  31.0460  31.5447  35.2697  35.6806  35.6976
    36.7734  36.8328

          k = 0.4000 0.4000 0.0000 (  1043 PWs)   bands (ev):

   -25.1648  -8.5591  -8.5463  -7.3092   7.9645   9.7086  12.9618  13.0637
    13.5923  13.6834  17.1406  19.4514  20.8994  22.2406  22.8172  24.1440
    26.2708  27.7803  29.6413  30.8707  31.8927  35.8557  36.0027  36.1771
    36.2945  36.3604

          k = 0.3750 0.3750 0.0000 (  1035 PWs)   bands (ev):

   -25.1787  -8.5138  -8.4951  -7.3216   8.1589   9.6013  13.0052  13.1561
    13.2125  13.3549  17.1681  19.1279  21.0996  22.5450  23.4279  24.5707
    26.4343  27.1988  28.7845  30.2073  32.8140  35.1445  35.1613  36.3687
    36.9739  37.1179

          k = 0.3500 0.3500 0.0000 (  1041 PWs)   bands (ev):

   -25.1950  -8.4592  -8.4344  -7.3362   8.3629   9.4952  12.7932  12.9976
    13.0637  13.2674  17.2393  18.8881  21.2541  22.8976  24.0470  24.8685
    26.6898  26.8786  27.9604  29.5560  33.7046  34.3712  34.3770  36.3018
    37.4901  37.9885

          k = 0.3250 0.3250 0.0000 (  1033 PWs)   bands (ev):

   -25.2133  -8.3958  -8.3653  -7.3525   8.5297   9.4256  12.3528  12.6396
    13.1395  13.3964  17.3499  18.7287  21.3356  23.2776  24.5547  25.1655
    26.3682  27.1898  27.4836  28.9186  33.3408  33.5827  34.9344  36.0974
    37.6213  37.8349

          k = 0.3000 0.3000 0.0000 (  1031 PWs)   bands (ev):

   -25.2331  -8.3245  -8.2891  -7.3702   8.5827   9.4474  11.9057  12.3189
    13.2347  13.5417  17.4944  18.6412  21.3444  23.6364  24.6975  25.5443
    26.4786  26.5199  28.1319  28.2975  32.5806  32.8149  35.8375  35.9464
    36.6394  37.9431

          k = 0.2750 0.2750 0.0000 (  1027 PWs)   bands (ev):

   -25.2539  -8.2463  -8.2076  -7.3889   8.4961   9.5480  11.4635  12.0892
    13.3508  13.7014  17.6670  18.6144  21.3057  23.8490  24.4758  26.0075
    26.0744  27.0028  27.6952  28.7245  31.9311  32.0916  35.5123  35.5636
    37.0678  37.8329

          k = 0.2500 0.2500 0.0000 (  1043 PWs)   bands (ev):

   -25.2752  -8.1629  -8.1223  -7.4082   8.3221   9.6223  11.0348  12.0156
    13.4886  13.8732  17.8622  18.6351  21.2531  23.7170  24.1455  26.0496
    26.5044  27.1148  27.6415  29.1238  31.4620  31.5404  34.4667  35.2971
    37.5907  38.0088

          k = 0.2250 0.2250 0.0000 (  1023 PWs)   bands (ev):

   -25.2964  -8.0756  -8.0352  -7.4274   8.1028   9.5975  10.6271  12.1384
    13.6487  14.0545  18.0738  18.6891  21.2187  23.2674  23.8193  26.4165
    26.5602  26.9145  28.1638  29.2518  31.0505  31.4815  33.5451  35.0507
    37.2941  38.0557

          k = 0.2000 0.2000 0.0000 (  1025 PWs)   bands (ev):

   -25.3172  -7.9869  -7.9486  -7.4461   7.8589   9.4824  10.2462  12.4333
    13.8300  14.2415  18.2950  18.7618  21.2295  22.6905  23.5345  26.0357
    26.9817  27.0127  28.3051  29.4129  31.0915  31.2619  33.1685  34.8335
    36.9888  37.7757

          k = 0.1750 0.1750 0.0000 (  1027 PWs)   bands (ev):

   -25.3368  -7.8989  -7.8646  -7.4640   7.6042   9.3248   9.8974  12.8404
    14.0309  14.4301  18.5174  18.8409  21.3067  22.0875  23.3090  25.5466
    26.7044  27.6400  28.0094  29.8726  30.5053  31.6314  33.5462  34.6534
    36.6987  37.5218

          k = 0.1500 0.1500 0.0000 (  1025 PWs)   bands (ev):

   -25.3549  -7.8143  -7.7855  -7.4806   7.3513   9.1624   9.5851  13.3062
    14.2479  14.6151  18.7314  18.9192  21.4642  21.4990  23.1548  25.0989
    26.1698  27.5002  28.3445  29.4623  30.6630  32.4435  34.2189  34.5204
    36.4364  37.2995

          k = 0.1250 0.1250 0.0000 (  1017 PWs)   bands (ev):

   -25.3711  -7.7361  -7.7136  -7.4953   7.1128   9.0150   9.3134  13.7894
    14.4751  14.7903  18.9264  18.9966  20.9461  21.7073  23.0817  24.6998
    25.5607  26.9267  28.4802  29.0636  31.4978  33.3782  34.4483  34.9774
    36.2088  37.1127

          k = 0.1000 0.1000 0.0000 (  1015 PWs)   bands (ev):

   -25.3848  -7.6670  -7.6512  -7.5079   6.9006   8.8912   9.0859  14.2547
    14.7035  14.9490  19.0788  19.0922  20.4456  22.0338  23.0963  24.3569
    24.9513  26.3491  27.5231  29.7623  32.4078  34.3744  34.4591  35.7546
    36.0197  36.9659

          k = 0.0750 0.0750 0.0000 (  1023 PWs)   bands (ev):

   -25.3959  -7.6099  -7.6003  -7.5181   6.7247   8.7941   8.9056  14.6672
    14.9191  15.0834  19.1709  19.2217  20.0153  22.4366  23.1984  24.0782
    24.3891  25.7969  26.6222  30.3936  33.3523  34.5862  35.3929  35.8711
    36.5004  36.8743

          k = 0.0500 0.0500 0.0000 (  1021 PWs)   bands (ev):

   -25.4040  -7.5671  -7.5626  -7.5255   6.5933   8.7247   8.7749  14.9927
    15.1022  15.1863  19.2682  19.3123  19.6775  22.9029  23.3756  23.8721
    23.9212  25.2956  25.7973  30.8967  34.2962  34.8688  35.7644  36.2914
    36.9678  37.0079

          k = 0.0250 0.0250 0.0000 (  1021 PWs)   bands (ev):

   -25.4090  -7.5406  -7.5394  -7.5301   6.5122   8.6831   8.6958  15.2013
    15.2280  15.2511  19.3494  19.3649  19.4585  23.3966  23.5861  23.6031
    23.7451  24.8909  25.0876  31.2159  35.1717  35.3138  35.7001  36.5453
    36.8471  37.0579

          k = 0.0000 0.0000 0.0000 (  1021 PWs)   bands (ev):

   -25.4106  -7.5316  -7.5316  -7.5316   6.4847   8.6693   8.6693  15.2732
    15.2732  15.2732  19.3821  19.3821  19.3821  23.4886  23.7023  23.7023
    23.7023  24.7102  24.7102  31.3239  35.6787  35.6787  35.6787  36.5597
    36.5597  36.5597

          k = 0.0250 0.0250 0.0250 (  1021 PWs)   bands (ev):

   -25.4081  -7.5404  -7.5387  -7.5387   6.5259   8.6995   8.6995  15.1807
    15.2150  15.2150  19.3788  19.4036  19.4036  23.4225  23.4225  23.6598
    23.7247  25.1133  25.1133  31.1593  34.9774  35.4263  35.4263  36.8083
    36.8083  37.1204

          k = 0.0500 0.0500 0.0500 (  1021 PWs)   bands (ev):

   -25.4007  -7.5662  -7.5595  -7.5595   6.6480   8.7898   8.7898  14.9228
    15.0437  15.0437  19.3805  19.4672  19.4672  23.0194  23.0194  23.7918
    24.1419  25.8827  25.8827  30.6458  34.0929  35.0036  35.0036  36.4668
    36.4668  37.6273

          k = 0.0750 0.0750 0.0750 (  1018 PWs)   bands (ev):

   -25.3886  -7.6075  -7.5933  -7.5933   6.8463   8.9385   8.9385  14.5479
    14.7695  14.7695  19.4057  19.5702  19.5702  22.7169  22.7169  23.9037
    24.8648  26.7799  26.7799  29.7932  33.4380  34.5940  34.5940  35.4607
    35.4607  37.7630

          k = 0.1000 0.1000 0.1000 (  1009 PWs)   bands (ev):

   -25.3720  -7.6619  -7.6387  -7.6387   7.1130   9.1430   9.1430  14.1127
    14.4096  14.4096  19.4625  19.7087  19.7087  22.5484  22.5484  24.0601
    25.7558  27.7426  27.7426  28.7160  33.0045  34.2191  34.2191  34.4735
    34.4735  37.3784

          k = 0.1250 0.1250 0.1250 (  1027 PWs)   bands (ev):

   -25.3514  -7.7267  -7.6941  -7.6941   7.4355   9.3994   9.3994  13.6691
    13.9861  13.9861  19.5468  19.8786  19.8786  22.5140  22.5140  24.2607
    26.7192  27.5880  28.7106  28.7106  32.7206  33.5191  33.5191  33.9532
    33.9532  36.7998

          k = 0.1500 0.1500 0.1500 (  1030 PWs)   bands (ev):

   -25.3273  -7.7986  -7.7572  -7.7572   7.7950   9.7021   9.7021  13.2630
    13.5244  13.5244  19.6447  20.0767  20.0767  22.6033  22.6033  24.5054
    26.3031  27.9011  29.5462  29.5462  32.5495  32.8083  32.8083  33.7214
    33.7214  36.1603

          k = 0.1750 0.1750 0.1750 (  1021 PWs)   bands (ev):

   -25.3003  -7.8745  -7.8261  -7.8261   8.1637  10.0412  10.0412  12.9393
    13.0518  13.0518  19.7311  20.3000  20.3000  22.8012  22.8012  24.7935
    25.2090  28.9502  29.8860  29.8860  32.4945  32.6085  32.6085  33.6134
    33.6134  35.5239

          k = 0.2000 0.2000 0.2000 (  1039 PWs)   bands (ev):

   -25.2711  -7.9517  -7.8986  -7.8986   8.5017  10.3965  10.3965  12.6032
    12.6032  12.7467  19.7602  20.5458  20.5458  23.0898  23.0898  24.2297
    25.1246  29.5178  29.5178  29.8928  32.5759  32.8985  32.8985  33.8539
    33.8539  34.9824

          k = 0.2250 0.2250 0.2250 (  1027 PWs)   bands (ev):

   -25.2404  -8.0276  -7.9725  -7.9725   8.7618  10.7116  10.7116  12.2461
    12.2461  12.7367  19.6548  20.8102  20.8102  23.4487  23.4487  23.4666
    25.4979  28.8348  28.8348  30.5650  32.6816  33.0136  33.0136  34.6980
    34.6980  34.7968

          k = 0.2500 0.2500 0.2500 (  1030 PWs)   bands (ev):

   -25.2089  -8.1002  -8.0458  -8.0458   8.9107  10.8315  10.8315  12.1430
    12.1430  12.9425  19.3281  21.0865  21.0865  23.0144  23.8498  23.8498
    25.9123  28.1042  28.1042  30.9400  32.4491  33.0321  33.0321  35.3419
    35.7454  35.7454

          k = 0.2750 0.2750 0.2750 (  1027 PWs)   bands (ev):

   -25.1774  -8.1680  -8.1168  -8.1168   8.9537  10.6531  10.6531  12.4024
    12.4024  13.3560  18.7730  21.3619  21.3619  22.8855  24.2439  24.2439
    26.3663  27.4496  27.4496  31.1400  31.9276  33.0498  33.0498  36.3754
    36.5287  36.5287

          k = 0.3000 0.3000 0.3000 (  1021 PWs)   bands (ev):

   -25.1468  -8.2297  -8.1840  -8.1840   8.9274  10.3392  10.3392  12.8651
    12.8651  13.9341  18.0797  21.6111  21.6111  22.9928  24.5306  24.5306
    26.8578  27.0080  27.0080  31.1118  31.4738  33.0599  33.0599  36.4856
    36.4856  36.6201

          k = 0.3250 0.3250 0.3250 (  1015 PWs)   bands (ev):

   -25.1177  -8.2847  -8.2459  -8.2459   8.8723  10.0070  10.0070  13.4152
    13.4152  14.6266  17.3450  21.7837  21.7837  23.2422  24.5832  24.5832
    26.9519  26.9519  27.3836  30.5246  31.5357  33.0073  33.0073  35.5623
    36.0501  36.0501

          k = 0.3500 0.3500 0.3500 (  1015 PWs)   bands (ev):

   -25.0908  -8.3326  -8.3015  -8.3015   8.8166   9.6962   9.6962  14.0138
    14.0138  15.3895  16.6310  21.7933  21.7933  23.5734  24.4801  24.4801
    27.2754  27.2754  27.9390  29.8437  31.6760  32.8038  32.8038  34.4553
    35.7531  35.7531

          k = 0.3750 0.3750 0.3750 (  1033 PWs)   bands (ev):

   -25.0670  -8.3730  -8.3500  -8.3500   8.7753   9.4218   9.4218  14.6449
    14.6449  15.9576  16.2027  21.5587  21.5587  23.9496  24.4594  24.4594
    27.8000  27.8000  28.5163  29.1553  31.7668  32.4115  32.4115  33.4963
    35.7513  35.7513

          k = 0.4000 0.4000 0.4000 (  1034 PWs)   bands (ev):

   -25.0466  -8.4060  -8.3904  -8.3904   8.7537   9.1913   9.1913  15.2985
    15.2985  15.3914  16.9870  21.0991  21.0991  24.3427  24.5989  24.5989
    28.3959  28.3959  28.4811  29.1026  31.5868  31.9061  31.9061  32.9377
    36.0028  36.0028

          k = 0.4250 0.4250 0.4250 (  1028 PWs)   bands (ev):

   -25.0302  -8.4315  -8.4224  -8.4224   8.7498   9.0088   9.0088  14.9169
    15.9642  15.9642  17.7319  20.5074  20.5074  24.7227  24.8343  24.8343
    27.8513  28.9833  28.9833  29.6746  31.0284  31.3989  31.3989  32.9052
    36.2761  36.2761

          k = 0.4500 0.4500 0.4500 (  1034 PWs)   bands (ev):

   -25.0182  -8.4496  -8.4455  -8.4455   8.7569   8.8768   8.8768  14.5614
    16.6239  16.6239  18.3651  19.8686  19.8686  25.0484  25.0821  25.0821
    27.3203  29.4814  29.4814  30.1894  30.4386  30.9884  30.9884  33.0622
    35.9272  35.9272

          k = 0.4750 0.4750 0.4750 (  1052 PWs)   bands (ev):

   -25.0109  -8.4605  -8.4595  -8.4595   8.7663   8.7970   8.7970  14.3405
    17.2229  17.2229  18.8037  19.2718  19.2718  25.2667  25.2700  25.2700
    26.9646  29.7869  29.7869  30.0204  30.5711  30.7638  30.7638  33.2129
    35.5102  35.5102

          k = 0.5000 0.5000 0.5000 (  1064 PWs)   bands (ev):

   -25.0084  -8.4642  -8.4642  -8.4642   8.7704   8.7704   8.7704  14.2655
    17.5312  17.5312  18.9628  18.9628  18.9628  25.3406  25.3406  25.3406
    26.8423  29.8686  29.8686  29.8686  30.7172  30.7172  30.7172  33.2731
    35.3500  35.3500

     Writing all to output data dir ./work/POSCAR.save/

     init_run     :      0.18s CPU      0.20s WALL (       1 calls)
     electrons    :      3.04s CPU      3.39s WALL (       1 calls)

     Called by init_run:
     wfcinit      :      0.00s CPU      0.01s WALL (       1 calls)
     potinit      :      0.08s CPU      0.09s WALL (       1 calls)
     hinit0       :      0.08s CPU      0.08s WALL (       1 calls)

     Called by electrons:
     c_bands      :      3.04s CPU      3.39s WALL (       1 calls)
     v_of_rho     :      0.00s CPU      0.00s WALL (       1 calls)
     newd         :      0.00s CPU      0.00s WALL (       1 calls)
     PAW_pot      :      0.04s CPU      0.04s WALL (       1 calls)

     Called by c_bands:
     init_us_2    :      0.00s CPU      0.00s WALL (      91 calls)
     init_us_2:cp :      0.00s CPU      0.00s WALL (      91 calls)
     cegterg      :      2.82s CPU      2.92s WALL (     115 calls)

     Called by *egterg:
     cdiaghg      :      1.04s CPU      1.07s WALL (    1797 calls)
     h_psi        :      1.43s CPU      1.48s WALL (    1912 calls)
     s_psi        :      0.02s CPU      0.02s WALL (    1912 calls)
     g_psi        :      0.01s CPU      0.02s WALL (    1706 calls)

     Called by h_psi:
     h_psi:calbec :      0.07s CPU      0.08s WALL (    1912 calls)
     vloc_psi     :      1.32s CPU      1.37s WALL (    1912 calls)
     add_vuspsi   :      0.02s CPU      0.02s WALL (    1912 calls)

     General routines
     calbec       :      0.07s CPU      0.07s WALL (    1912 calls)
     fft          :      0.05s CPU      0.05s WALL (      13 calls)
     ffts         :      0.03s CPU      0.03s WALL (       1 calls)
     fftw         :      1.21s CPU      1.25s WALL (   51632 calls)
     interpolate  :      0.03s CPU      0.03s WALL (       1 calls)
     davcio       :      0.00s CPU      0.18s WALL (     182 calls)

     Parallel routines

     PWSCF        :      3.58s CPU      4.79s WALL


   This run was terminated on:  22:41:43  15May2024            

=------------------------------------------------------------------------------=
   JOB DONE.
=------------------------------------------------------------------------------=
