
     Program PWSCF v.7.1 starts on 11Nov2023 at 20:42: 1 

     This program is part of the open-source Quantum ESPRESSO suite
     for quantum simulation of materials; please cite
         "P. Giannozzi et al., J. Phys.:Condens. Matter 21 395502 (2009);
         "P. Giannozzi et al., J. Phys.:Condens. Matter 29 465901 (2017);
         "P. Giannozzi et al., J. Chem. Phys. 152 154105 (2020);
          URL http://www.quantum-espresso.org", 
     in publications or presentations arising from this work. More details at
     http://www.quantum-espresso.org/quote

     Parallel version (MPI & OpenMP), running on       8 processor cores
     Number of MPI processes:                 8
     Threads/MPI process:                     1

     MPI processes distributed on     1 nodes
     15128 MiB available memory on the printing compute node when the environment starts

     Waiting for input...
     Reading input from standard input

     Current dimensions of program PWSCF are:
     Max number of different atomic species (ntypx) = 10
     Max number of k-points (npk) =  40000
     Max angular momentum in pseudopotentials (lmaxx) =  4

     Atomic positions and unit cell read from directory:
     ./work/POSCAR.save/

     file Ta.pbe-spfn-kjpaw_psl.1.0.0.UPF: wavefunction(s)  5S 5P 4F renormalized
     Message from routine setup:
     using ibrav=0 with symmetry is DISCOURAGED, use correct ibrav instead

     R & G space division:  proc/nbgrp/npool/nimage =       8
     Subspace diagonalization in iterative solution of the eigenvalue problem:
     a serial algorithm will be used


     Parallelization info
     --------------------
     sticks:   dense  smooth     PW     G-vecs:    dense   smooth      PW
     Min         193      75     22                 4878     1174     199
     Max         194      76     23                 4882     1176     201
     Sum        1551     607    181                39039     9405    1601

     Using Slab Decomposition



     bravais-lattice index     =            0
     lattice parameter (alat)  =       6.2782  a.u.
     unit-cell volume          =     190.4966 (a.u.)^3
     number of atoms/cell      =            1
     number of atomic types    =            1
     number of electrons       =        27.00
     number of Kohn-Sham states=           22
     kinetic-energy cutoff     =      51.0000  Ry
     charge density cutoff     =     530.0000  Ry
     Exchange-correlation= SLA  PW   PBX  PBC
                           (   1   4   3   4   0   0   0)

     celldm(1)=   6.278218  celldm(2)=   0.000000  celldm(3)=   0.000000
     celldm(4)=   0.000000  celldm(5)=   0.000000  celldm(6)=   0.000000

     crystal axes: (cart. coord. in units of alat)
               a(1) = (   1.000000   0.000000   0.000000 )  
               a(2) = (  -0.333333   0.942809   0.000000 )  
               a(3) = (  -0.333333  -0.471405   0.816497 )  

     reciprocal axes: (cart. coord. in units 2 pi/alat)
               b(1) = (  1.000000  0.353553  0.612372 )  
               b(2) = ( -0.000000  1.060660  0.612373 )  
               b(3) = (  0.000000 -0.000000  1.224745 )  


     PseudoPot. # 1 for Ta read from file:
     ./../../../pseudo/psl100_PBE/Ta.pbe-spfn-kjpaw_psl.1.0.0.UPF
     MD5 check sum: f2c76d35921911ba13dce2af2c43b235
     Pseudo is Projector augmented-wave + core cor, Zval = 27.0
     Generated using 'atomic' code by A. Dal Corso  v.7.2
     Shape of augmentation charge: PSQ
     Using radial grid of 1273 points,  8 beta functions with: 
                l(1) =   0
                l(2) =   0
                l(3) =   1
                l(4) =   1
                l(5) =   2
                l(6) =   2
                l(7) =   3
                l(8) =   3
     Q(r) pseudized with 0 coefficients 


     atomic species   valence    mass     pseudopotential
        Ta            27.00   180.94700     Ta( 1.00)

      4 Sym. Ops., with inversion, found



   Cartesian axes

     site n.     atom                  positions (alat units)
         1           Ta  tau(   1) = (   0.0000000   0.0000000   0.0000000  )

     number of k points=    81  Methfessel-Paxton smearing, width (Ry)=  0.0200
                       cart. coord. in units 2pi/alat
        k(    1) = (   0.2500000   0.3535534   0.6123725), wk =   0.0246914
        k(    2) = (   0.2250000   0.3181981   0.6123725), wk =   0.0246914
        k(    3) = (   0.2000000   0.2828427   0.6123725), wk =   0.0246914
        k(    4) = (   0.1750000   0.2474874   0.6123725), wk =   0.0246914
        k(    5) = (   0.1500000   0.2121320   0.6123725), wk =   0.0246914
        k(    6) = (   0.1250000   0.1767767   0.6123725), wk =   0.0246914
        k(    7) = (   0.1000000   0.1414214   0.6123725), wk =   0.0246914
        k(    8) = (   0.0750000   0.1060660   0.6123725), wk =   0.0246914
        k(    9) = (   0.0500000   0.0707107   0.6123725), wk =   0.0246914
        k(   10) = (   0.0250000   0.0353553   0.6123725), wk =   0.0246914
        k(   11) = (   0.0000000   0.0000000   0.6123725), wk =   0.0246914
        k(   12) = (   0.0000000   0.0000000   0.5511352), wk =   0.0246914
        k(   13) = (   0.0000000   0.0000000   0.4898980), wk =   0.0246914
        k(   14) = (   0.0000000   0.0000000   0.4286607), wk =   0.0246914
        k(   15) = (   0.0000000   0.0000000   0.3674235), wk =   0.0246914
        k(   16) = (   0.0000000   0.0000000   0.3061862), wk =   0.0246914
        k(   17) = (   0.0000000   0.0000000   0.2449490), wk =   0.0246914
        k(   18) = (   0.0000000   0.0000000   0.1837117), wk =   0.0246914
        k(   19) = (   0.0000000   0.0000000   0.1224745), wk =   0.0246914
        k(   20) = (   0.0000000   0.0000000   0.0612372), wk =   0.0246914
        k(   21) = (   0.0000000   0.0000000   0.0000000), wk =   0.0246914
        k(   22) = (  -0.0250000   0.0176777   0.0306186), wk =   0.0246914
        k(   23) = (  -0.0500000   0.0353553   0.0612372), wk =   0.0246914
        k(   24) = (  -0.0750000   0.0530330   0.0918559), wk =   0.0246914
        k(   25) = (  -0.1000000   0.0707107   0.1224745), wk =   0.0246914
        k(   26) = (  -0.1250000   0.0883883   0.1530931), wk =   0.0246914
        k(   27) = (  -0.1500000   0.1060660   0.1837117), wk =   0.0246914
        k(   28) = (  -0.1750000   0.1237437   0.2143304), wk =   0.0246914
        k(   29) = (  -0.2000000   0.1414214   0.2449490), wk =   0.0246914
        k(   30) = (  -0.2250000   0.1590990   0.2755676), wk =   0.0246914
        k(   31) = (  -0.2500000   0.1767767   0.3061862), wk =   0.0246914
        k(   32) = (  -0.2750000   0.1944544   0.3368049), wk =   0.0246914
        k(   33) = (  -0.3000000   0.2121320   0.3674235), wk =   0.0246914
        k(   34) = (  -0.3250000   0.2298097   0.3980421), wk =   0.0246914
        k(   35) = (  -0.3500000   0.2474874   0.4286607), wk =   0.0246914
        k(   36) = (  -0.3750000   0.2651650   0.4592794), wk =   0.0246914
        k(   37) = (  -0.4000000   0.2828427   0.4898980), wk =   0.0246914
        k(   38) = (  -0.4250000   0.3005204   0.5205166), wk =   0.0246914
        k(   39) = (  -0.4500000   0.3181981   0.5511352), wk =   0.0246914
        k(   40) = (  -0.4750000   0.3358757   0.5817539), wk =   0.0246914
        k(   41) = (  -0.5000000   0.3535534   0.6123725), wk =   0.0246914
        k(   42) = (  -0.4625000   0.3535534   0.6123725), wk =   0.0246914
        k(   43) = (  -0.4250000   0.3535534   0.6123725), wk =   0.0246914
        k(   44) = (  -0.3875000   0.3535534   0.6123725), wk =   0.0246914
        k(   45) = (  -0.3500000   0.3535534   0.6123725), wk =   0.0246914
        k(   46) = (  -0.3125000   0.3535534   0.6123725), wk =   0.0246914
        k(   47) = (  -0.2750000   0.3535534   0.6123725), wk =   0.0246914
        k(   48) = (  -0.2375000   0.3535534   0.6123725), wk =   0.0246914
        k(   49) = (  -0.2000000   0.3535534   0.6123725), wk =   0.0246914
        k(   50) = (  -0.1625000   0.3535534   0.6123725), wk =   0.0246914
        k(   51) = (  -0.1250000   0.3535534   0.6123725), wk =   0.0246914
        k(   52) = (  -0.0875000   0.3535534   0.6123725), wk =   0.0246914
        k(   53) = (  -0.0500000   0.3535534   0.6123725), wk =   0.0246914
        k(   54) = (  -0.0125000   0.3535534   0.6123725), wk =   0.0246914
        k(   55) = (   0.0250000   0.3535534   0.6123725), wk =   0.0246914
        k(   56) = (   0.0625000   0.3535534   0.6123725), wk =   0.0246914
        k(   57) = (   0.1000000   0.3535534   0.6123725), wk =   0.0246914
        k(   58) = (   0.1375000   0.3535534   0.6123725), wk =   0.0246914
        k(   59) = (   0.1750000   0.3535534   0.6123725), wk =   0.0246914
        k(   60) = (   0.2125000   0.3535534   0.6123725), wk =   0.0246914
        k(   61) = (   0.2500000   0.3535534   0.6123725), wk =   0.0246914
        k(   62) = (   0.2250000   0.3181981   0.5511352), wk =   0.0246914
        k(   63) = (   0.2000000   0.2828427   0.4898980), wk =   0.0246914
        k(   64) = (   0.1750000   0.2474874   0.4286607), wk =   0.0246914
        k(   65) = (   0.1500000   0.2121320   0.3674235), wk =   0.0246914
        k(   66) = (   0.1250000   0.1767767   0.3061862), wk =   0.0246914
        k(   67) = (   0.1000000   0.1414214   0.2449490), wk =   0.0246914
        k(   68) = (   0.0750000   0.1060660   0.1837117), wk =   0.0246914
        k(   69) = (   0.0500000   0.0707107   0.1224745), wk =   0.0246914
        k(   70) = (   0.0250000   0.0353553   0.0612372), wk =   0.0246914
        k(   71) = (   0.0000000   0.0000000   0.0000000), wk =   0.0246914
        k(   72) = (   0.0000000   0.0000000   0.0612372), wk =   0.0246914
        k(   73) = (   0.0000000   0.0000000   0.1224745), wk =   0.0246914
        k(   74) = (   0.0000000   0.0000000   0.1837117), wk =   0.0246914
        k(   75) = (   0.0000000   0.0000000   0.2449490), wk =   0.0246914
        k(   76) = (   0.0000000   0.0000000   0.3061862), wk =   0.0246914
        k(   77) = (   0.0000000   0.0000000   0.3674235), wk =   0.0246914
        k(   78) = (   0.0000000   0.0000000   0.4286607), wk =   0.0246914
        k(   79) = (   0.0000000   0.0000000   0.4898980), wk =   0.0246914
        k(   80) = (   0.0000000   0.0000000   0.5511352), wk =   0.0246914
        k(   81) = (   0.0000000   0.0000000   0.6123725), wk =   0.0246914

     Dense  grid:    39039 G-vectors     FFT dimensions: (  45,  45,  45)

     Smooth grid:     9405 G-vectors     FFT dimensions: (  30,  30,  30)

     Estimated max dynamical RAM per process >      47.45 MB

     Estimated total dynamical RAM >     379.59 MB

     The potential is recalculated from file :
     ./work/POSCAR.save/charge-density

     Starting wfcs are   17 randomized atomic wfcs +    5 random wfcs
     Checking if some PAW data can be deallocated... 

     Band Structure Calculation
     Davidson diagonalization with overlap

     ethr =  2.70E-07,  avg # of iterations = 15.3

     total cpu time spent up to now is        2.9 secs

     End of band structure calculation

          k = 0.2500 0.3536 0.6124 (  1160 PWs)   bands (ev):

   -55.5400 -21.8277 -21.8277 -21.8276  -7.5213  -7.5213  -7.5213  -7.5083
    -7.5083  -7.5082  -7.4963  12.1249  12.1250  12.1250  15.8186  15.8186
    16.2751  21.0441  21.0441  21.0441  33.1475  33.1476

          k = 0.2250 0.3182 0.6124 (  1160 PWs)   bands (ev):

   -55.5400 -21.8462 -21.8269 -21.8092  -7.5218  -7.5213  -7.5209  -7.5087
    -7.5083  -7.5078  -7.4962  12.0463  12.0744  12.2041  15.8035  15.8169
    16.3650  20.5355  21.1087  21.5270  32.3337  33.1868

          k = 0.2000 0.2828 0.6124 (  1172 PWs)   bands (ev):

   -55.5401 -21.8646 -21.8250 -21.7913  -7.5225  -7.5215  -7.5206  -7.5094
    -7.5084  -7.5075  -7.4962  11.8356  12.0508  12.3119  15.7523  15.8120
    16.6172  20.0172  21.2975  21.9644  31.5981  32.7688

          k = 0.1750 0.2475 0.6124 (  1172 PWs)   bands (ev):

   -55.5402 -21.8820 -21.8215 -21.7744  -7.5231  -7.5215  -7.5203  -7.5098
    -7.5085  -7.5071  -7.4959  11.5472  12.0512  12.4472  15.6695  15.8044
    16.9780  19.5023  21.5959  22.3335  31.0290  32.2727

          k = 0.1500 0.2121 0.6124 (  1180 PWs)   bands (ev):

   -55.5403 -21.8983 -21.8172 -21.7588  -7.5238  -7.5216  -7.5204  -7.5102
    -7.5085  -7.5069  -7.4955  11.2317  12.0711  12.6066  15.5689  15.7949
    17.3878  19.0024  21.9825  22.6120  30.6590  31.8286

          k = 0.1250 0.1768 0.6124 (  1170 PWs)   bands (ev):

   -55.5403 -21.9126 -21.8120 -21.7448  -7.5242  -7.5214  -7.5202  -7.5102
    -7.5084  -7.5065  -7.4950  10.9253  12.1051  12.7843  15.4643  15.7844
    17.7997  18.5294  22.4299  22.7874  30.5037  31.4461

          k = 0.1000 0.1414 0.6124 (  1174 PWs)   bands (ev):

   -55.5404 -21.9249 -21.8072 -21.7331  -7.5246  -7.5214  -7.5203  -7.5104
    -7.5084  -7.5063  -7.4948  10.6518  12.1468  12.9712  15.3661  15.7740
    18.0963  18.1792  22.8651  22.9043  30.5545  31.1294

          k = 0.0750 0.1061 0.6124 (  1170 PWs)   bands (ev):

   -55.5405 -21.9347 -21.8026 -21.7238  -7.5250  -7.5212  -7.5204  -7.5104
    -7.5082  -7.5061  -7.4947  10.4265  12.1892  13.1534  15.2826  15.7646
    17.7201  18.5007  22.8706  23.3635  30.7730  30.8810

          k = 0.0500 0.0707 0.6124 (  1170 PWs)   bands (ev):

   -55.5406 -21.9420 -21.7990 -21.7169  -7.5252  -7.5211  -7.5205  -7.5105
    -7.5083  -7.5060  -7.4945  10.2594  12.2256  13.3115  15.2194  15.7572
    17.4220  18.7449  22.8398  23.7565  30.7024  31.0890

          k = 0.0250 0.0354 0.6124 (  1170 PWs)   bands (ev):

   -55.5406 -21.9464 -21.7968 -21.7127  -7.5255  -7.5213  -7.5205  -7.5104
    -7.5083  -7.5058  -7.4942  10.1569  12.2501  13.4217  15.1800  15.7524
    17.2274  18.8974  22.8062  24.0262  30.5949  31.0777

          k = 0.0000 0.0000 0.6124 (  1180 PWs)   bands (ev):

   -55.5407 -21.9480 -21.7962 -21.7114  -7.5256  -7.5213  -7.5206  -7.5105
    -7.5085  -7.5060  -7.4944  10.1224  12.2587  13.4616  15.1667  15.7507
    17.1592  18.9492  22.7923  24.1229  30.5589  30.9833

          k = 0.0000 0.0000 0.5511 (  1174 PWs)   bands (ev):

   -55.5410 -21.9424 -21.7941 -21.7113  -7.5252  -7.5211  -7.5205  -7.5107
    -7.5085  -7.5062  -7.4941  10.0547  12.2840  13.3139  15.2032  15.7338
    17.0009  19.2324  22.8936  24.3597  30.5197  31.0777

          k = 0.0000 0.0000 0.4899 (  1166 PWs)   bands (ev):

   -55.5419 -21.9259 -21.7881 -21.7113  -7.5246  -7.5206  -7.5201  -7.5111
    -7.5090  -7.5068  -7.4933   9.8333  12.3583  13.0462  15.2323  15.6878
    16.5872  20.0074  23.1891  25.0057  30.3512  30.7503

          k = 0.0000 0.0000 0.4287 (  1160 PWs)   bands (ev):

   -55.5433 -21.9002 -21.7790 -21.7112  -7.5234  -7.5201  -7.5196  -7.5117
    -7.5097  -7.5080  -7.4922   9.4430  12.4774  12.8881  15.1971  15.6250
    16.0386  21.1188  23.6546  25.9309  29.9622  30.0421

          k = 0.0000 0.0000 0.3674 (  1158 PWs)   bands (ev):

   -55.5452 -21.8677 -21.7674 -21.7115  -7.5222  -7.5194  -7.5191  -7.5125
    -7.5108  -7.5094  -7.4908   8.9302  12.6334  12.9009  15.1230  15.4552
    15.5590  22.4272  24.2498  27.0176  29.0784  29.6202

          k = 0.0000 0.0000 0.3062 (  1164 PWs)   bands (ev):

   -55.5472 -21.8315 -21.7547 -21.7119  -7.5210  -7.5187  -7.5186  -7.5135
    -7.5120  -7.5111  -7.4892   8.3795  12.8150  13.0341  14.9005  15.0557
    15.5010  23.8169  24.9076  28.1716  28.1957  29.1395

          k = 0.0000 0.0000 0.2449 (  1162 PWs)   bands (ev):

   -55.5493 -21.7951 -21.7418 -21.7122  -7.5198  -7.5181  -7.5179  -7.5143
    -7.5132  -7.5127  -7.4875   7.8628  13.0071  13.2082  14.4127  15.0397
    15.4573  25.1224  25.4989  27.3833  28.7511  29.1151

          k = 0.0000 0.0000 0.1837 (  1169 PWs)   bands (ev):

   -55.5511 -21.7621 -21.7304 -21.7125  -7.5187  -7.5177  -7.5174  -7.5151
    -7.5145  -7.5142  -7.4859   7.4266  13.1908  13.3539  14.0152  15.1034
    15.4290  25.8270  25.9486  26.6930  28.8704  29.1940

          k = 0.0000 0.0000 0.1225 (  1177 PWs)   bands (ev):

   -55.5526 -21.7359 -21.7210 -21.7129  -7.5180  -7.5175  -7.5173  -7.5158
    -7.5155  -7.5152  -7.4846   7.0990  13.3445  13.4393  13.7226  15.2299
    15.4134  25.8507  26.0158  26.1662  29.8045  29.8529

          k = 0.0000 0.0000 0.0612 (  1179 PWs)   bands (ev):

   -55.5536 -21.7190 -21.7151 -21.7131  -7.5174  -7.5172  -7.5172  -7.5161
    -7.5161  -7.5160  -7.4837   6.8965  13.4474  13.4749  13.5438  15.3539
    15.4068  25.7654  25.8183  25.8354  30.8758  31.0279

          k = 0.0000 0.0000 0.0000 (  1157 PWs)   bands (ev):

   -55.5538 -21.7127 -21.7127 -21.7126  -7.5168  -7.5168  -7.5168  -7.5161
    -7.5161  -7.5161  -7.4830   6.8281  13.4837  13.4837  13.4837  15.4052
    15.4052  25.7226  25.7226  25.7226  31.8335  31.8335

          k =-0.0250 0.0177 0.0306 (  1177 PWs)   bands (ev):

   -55.5537 -21.7150 -21.7141 -21.7140  -7.5173  -7.5171  -7.5171  -7.5162
    -7.5161  -7.5161  -7.4836   6.8624  13.4798  13.4798  13.4993  15.3646
    15.4196  25.7399  25.7791  25.7791  30.9609  31.7464

          k =-0.0500 0.0354 0.0612 (  1177 PWs)   bands (ev):

   -55.5532 -21.7206 -21.7172 -21.7171  -7.5175  -7.5172  -7.5172  -7.5160
    -7.5159  -7.5158  -7.4841   6.9647  13.4696  13.4696  13.5460  15.2462
    15.4618  25.7903  25.9454  25.9454  29.7772  31.4937

          k =-0.0750 0.0530 0.0919 (  1165 PWs)   bands (ev):

   -55.5524 -21.7291 -21.7222 -21.7221  -7.5176  -7.5173  -7.5173  -7.5156
    -7.5152  -7.5152  -7.4848   7.1335  13.4566  13.4566  13.6233  15.0584
    15.5278  25.8703  26.2110  26.2110  28.5894  31.1007

          k =-0.1000 0.0707 0.1225 (  1165 PWs)   bands (ev):

   -55.5514 -21.7409 -21.7291 -21.7290  -7.5181  -7.5175  -7.5175  -7.5152
    -7.5146  -7.5146  -7.4857   7.3661  13.4457  13.4458  13.7303  14.8131
    15.6097  25.9747  26.5532  26.5532  27.4532  30.6102

          k =-0.1250 0.0884 0.1531 (  1160 PWs)   bands (ev):

   -55.5500 -21.7549 -21.7376 -21.7376  -7.5186  -7.5178  -7.5178  -7.5144
    -7.5138  -7.5138  -7.4870   7.6588  13.4434  13.4434  13.8657  14.5241
    15.6969  26.0988  26.4048  26.9219  26.9219  30.0940

          k =-0.1500 0.1061 0.1837 (  1164 PWs)   bands (ev):

   -55.5485 -21.7706 -21.7479 -21.7478  -7.5195  -7.5182  -7.5182  -7.5137
    -7.5130  -7.5130  -7.4884   8.0065  13.4561  13.4561  14.0276  14.2053
    15.7746  25.4743  26.2379  27.1906  27.1906  29.6969

          k =-0.1750 0.1237 0.2143 (  1164 PWs)   bands (ev):

   -55.5468 -21.7869 -21.7593 -21.7593  -7.5203  -7.5186  -7.5186  -7.5129
    -7.5120  -7.5120  -7.4901   8.4023  13.4901  13.4902  13.8694  14.2141
    15.8253  24.6897  26.3884  27.1230  27.1230  29.6690

          k =-0.2000 0.1414 0.2449 (  1184 PWs)   bands (ev):

   -55.5450 -21.8037 -21.7722 -21.7721  -7.5215  -7.5192  -7.5192  -7.5122
    -7.5114  -7.5114  -7.4920   8.8376  13.5273  13.5511  13.5511  14.4222
    15.8322  24.0753  26.5473  26.6532  26.6532  30.0851

          k =-0.2250 0.1591 0.2756 (  1176 PWs)   bands (ev):

   -55.5432 -21.8190 -21.7854 -21.7853  -7.5220  -7.5196  -7.5196  -7.5113
    -7.5102  -7.5102  -7.4938   9.3003  13.1884  13.6441  13.6441  14.6488
    15.7862  23.6470  25.9666  25.9666  26.7116  30.7640

          k =-0.2500 0.1768 0.3062 (  1180 PWs)   bands (ev):

   -55.5413 -21.8337 -21.7991 -21.7991  -7.5226  -7.5202  -7.5202  -7.5102
    -7.5092  -7.5092  -7.4958   9.7735  12.8604  13.7728  13.7729  14.8899
    15.6943  23.4039  25.1922  25.1922  26.8784  31.5771

          k =-0.2750 0.1945 0.3368 (  1180 PWs)   bands (ev):

   -55.5394 -21.8466 -21.8129 -21.8129  -7.5231  -7.5208  -7.5207  -7.5092
    -7.5082  -7.5082  -7.4976  10.2331  12.5496  13.9405  13.9406  15.1407
    15.5868  23.3232  24.3846  24.3846  27.0446  32.1559

          k =-0.3000 0.2121 0.3674 (  1172 PWs)   bands (ev):

   -55.5376 -21.8574 -21.8264 -21.8263  -7.5235  -7.5213  -7.5213  -7.5079
    -7.5071  -7.5071  -7.4994  10.6460  12.2610  14.1492  14.1493  15.3958
    15.5153  23.3599  23.5696  23.5696  27.2069  31.0999

          k =-0.3250 0.2298 0.3980 (  1172 PWs)   bands (ev):

   -55.5359 -21.8665 -21.8393 -21.8393  -7.5238  -7.5218  -7.5218  -7.5069
    -7.5063  -7.5062  -7.5010  10.9727  11.9987  14.4000  14.4000  15.5426
    15.6487  22.7619  22.7619  23.4503  27.3618  30.1060

          k =-0.3500 0.2475 0.4287 (  1172 PWs)   bands (ev):

   -55.5344 -21.8736 -21.8514 -21.8513  -7.5239  -7.5223  -7.5223  -7.5062
    -7.5055  -7.5055  -7.5026  11.1816  11.7658  14.6927  14.6927  15.7215
    15.8923  21.9719  21.9719  23.5122  27.5058  29.2387

          k =-0.3750 0.2652 0.4593 (  1164 PWs)   bands (ev):

   -55.5331 -21.8792 -21.8619 -21.8618  -7.5239  -7.5225  -7.5225  -7.5054
    -7.5047  -7.5047  -7.5040  11.2700  11.5651  15.0260  15.0260  16.0691
    16.1189  21.2084  21.2084  23.4501  27.6354  28.5689

          k =-0.4000 0.2828 0.4899 (  1176 PWs)   bands (ev):

   -55.5320 -21.8835 -21.8713 -21.8712  -7.5240  -7.5230  -7.5230  -7.5053
    -7.5049  -7.5044  -7.5044  11.2678  11.3983  15.3961  15.3961  16.3198
    16.5609  20.4802  20.4802  23.1875  27.7469  28.1492

          k =-0.4250 0.3005 0.5205 (  1180 PWs)   bands (ev):

   -55.5311 -21.8863 -21.8787 -21.8787  -7.5243  -7.5234  -7.5234  -7.5062
    -7.5043  -7.5040  -7.5040  11.2181  11.2672  15.7943  15.7944  16.4871
    17.1466  19.7999  19.7999  22.7250  27.8373  27.9635

          k =-0.4500 0.3182 0.5511 (  1180 PWs)   bands (ev):

   -55.5304 -21.8880 -21.8843 -21.8842  -7.5243  -7.5237  -7.5237  -7.5069
    -7.5037  -7.5037  -7.5037  11.1582  11.1727  16.1999  16.2000  16.6130
    17.7579  19.1910  19.1910  22.1538  27.9040  27.9268

          k =-0.4750 0.3359 0.5818 (  1168 PWs)   bands (ev):

   -55.5300 -21.8884 -21.8876 -21.8875  -7.5238  -7.5237  -7.5237  -7.5073
    -7.5034  -7.5034  -7.5034  11.1132  11.1158  16.5561  16.5562  16.6913
    18.2820  18.7122  18.7122  21.6330  27.9448  27.9456

          k =-0.5000 0.3536 0.6124 (  1168 PWs)   bands (ev):

   -55.5299 -21.8887 -21.8887 -21.8886  -7.5238  -7.5238  -7.5238  -7.5074
    -7.5033  -7.5033  -7.5033  11.0967  11.0967  16.7179  16.7179  16.7179
    18.5095  18.5095  18.5095  21.4032  27.9586  27.9586

          k =-0.4625 0.3536 0.6124 (  1168 PWs)   bands (ev):

   -55.5300 -21.8888 -21.8888 -21.8866  -7.5238  -7.5238  -7.5237  -7.5073
    -7.5034  -7.5034  -7.5033  11.1101  11.1102  16.5259  16.6767  16.6767
    18.5503  18.5561  18.5561  21.5873  27.9481  27.9481

          k =-0.4250 0.3536 0.6124 (  1171 PWs)   bands (ev):

   -55.5303 -21.8890 -21.8890 -21.8806  -7.5238  -7.5238  -7.5236  -7.5071
    -7.5037  -7.5037  -7.5034  11.1499  11.1500  16.0595  16.5663  16.5664
    18.6098  18.6818  18.6818  22.0921  27.9189  27.9189

          k =-0.3875 0.3536 0.6124 (  1183 PWs)   bands (ev):

   -55.5308 -21.8895 -21.8895 -21.8712  -7.5241  -7.5241  -7.5234  -7.5065
    -7.5042  -7.5042  -7.5034  11.2147  11.2147  15.4754  16.4143  16.4143
    18.6290  18.8574  18.8574  22.8166  27.8773  27.8773

          k =-0.3500 0.3536 0.6124 (  1189 PWs)   bands (ev):

   -55.5314 -21.8900 -21.8900 -21.8583  -7.5242  -7.5242  -7.5233  -7.5058
    -7.5047  -7.5046  -7.5036  11.3020  11.3020  14.8616  16.2450  16.2451
    18.6052  19.0553  19.0553  23.6687  27.8335  27.8335

          k =-0.3125 0.3536 0.6124 (  1195 PWs)   bands (ev):

   -55.5322 -21.8906 -21.8906 -21.8428  -7.5242  -7.5242  -7.5231  -7.5051
    -7.5051  -7.5049  -7.5039  11.4085  11.4085  14.2615  16.0757  16.0757
    18.5488  19.2547  19.2547  24.5810  27.8002  27.8003

          k =-0.2750 0.3536 0.6124 (  1189 PWs)   bands (ev):

   -55.5330 -21.8907 -21.8907 -21.8257  -7.5241  -7.5241  -7.5227  -7.5055
    -7.5055  -7.5041  -7.5039  11.5296  11.5297  13.6986  15.9178  15.9178
    18.4685  19.4405  19.4405  25.4949  27.7918  27.7918

          k =-0.2375 0.3536 0.6124 (  1177 PWs)   bands (ev):

   -55.5339 -21.8905 -21.8905 -21.8079  -7.5238  -7.5238  -7.5223  -7.5059
    -7.5059  -7.5042  -7.5027  11.6598  11.6598  13.1863  15.7794  15.7794
    18.3698  19.6022  19.6022  26.3368  27.8221  27.8221

          k =-0.2000 0.3536 0.6124 (  1171 PWs)   bands (ev):

   -55.5349 -21.8899 -21.8899 -21.7907  -7.5236  -7.5236  -7.5217  -7.5065
    -7.5065  -7.5044  -7.5015  11.7922  11.7922  12.7334  15.6663  15.6663
    18.2565  19.7332  19.7332  26.9871  27.9036  27.9037

          k =-0.1625 0.3536 0.6124 (  1174 PWs)   bands (ev):

   -55.5358 -21.8890 -21.8890 -21.7751  -7.5235  -7.5235  -7.5214  -7.5072
    -7.5072  -7.5046  -7.5004  11.9195  11.9195  12.3456  15.5830  15.5830
    18.1305  19.8318  19.8318  27.2753  28.0456  28.0456

          k =-0.1250 0.3536 0.6124 (  1184 PWs)   bands (ev):

   -55.5367 -21.8875 -21.8875 -21.7620  -7.5236  -7.5236  -7.5211  -7.5079
    -7.5079  -7.5049  -7.4995  12.0268  12.0343  12.0343  15.5320  15.5320
    17.9926  19.9011  19.9011  27.1166  28.2532  28.2532

          k =-0.0875 0.3536 0.6124 (  1178 PWs)   bands (ev):

   -55.5375 -21.8852 -21.8852 -21.7515  -7.5235  -7.5235  -7.5207  -7.5083
    -7.5083  -7.5052  -7.4983  11.7795  12.1301  12.1301  15.5136  15.5136
    17.8431  19.9488  19.9488  26.6325  28.5278  28.5278

          k =-0.0500 0.3536 0.6124 (  1184 PWs)   bands (ev):

   -55.5383 -21.8822 -21.8822 -21.7452  -7.5234  -7.5234  -7.5205  -7.5088
    -7.5088  -7.5055  -7.4975  11.6044  12.2024  12.2024  15.5249  15.5249
    17.6808  19.9860  19.9860  25.9902  28.8674  28.8674

          k =-0.0125 0.3536 0.6124 (  1181 PWs)   bands (ev):

   -55.5388 -21.8782 -21.8781 -21.7430  -7.5233  -7.5233  -7.5203  -7.5088
    -7.5088  -7.5058  -7.4972  11.5009  12.2494  12.2494  15.5599  15.5599
    17.5049  20.0253  20.0253  25.2921  29.2680  29.2680

          k = 0.0250 0.3536 0.6124 (  1184 PWs)   bands (ev):

   -55.5393 -21.8734 -21.8734 -21.7451  -7.5231  -7.5231  -7.5202  -7.5092
    -7.5092  -7.5062  -7.4967  11.4668  12.2721  12.2721  15.6098  15.6098
    17.3148  20.0792  20.0792  24.5893  29.7246  29.7246

          k = 0.0625 0.3536 0.6124 (  1190 PWs)   bands (ev):

   -55.5397 -21.8678 -21.8678 -21.7516  -7.5231  -7.5231  -7.5201  -7.5093
    -7.5093  -7.5065  -7.4965  11.4975  12.2736  12.2736  15.6653  15.6654
    17.1109  20.1580  20.1580  23.9079  30.2323  30.2323

          k = 0.1000 0.3536 0.6124 (  1184 PWs)   bands (ev):

   -55.5399 -21.8612 -21.8612 -21.7616  -7.5227  -7.5227  -7.5202  -7.5092
    -7.5092  -7.5069  -7.4964  11.5850  12.2582  12.2582  15.7182  15.7182
    16.8971  20.2689  20.2689  23.2611  30.7864  30.7864

          k = 0.1375 0.3536 0.6124 (  1169 PWs)   bands (ev):

   -55.5400 -21.8536 -21.8536 -21.7750  -7.5224  -7.5224  -7.5202  -7.5090
    -7.5090  -7.5069  -7.4961  11.7167  12.2309  12.2309  15.7621  15.7621
    16.6827  20.4149  20.4149  22.6541  31.3811  31.3811

          k = 0.1750 0.3536 0.6124 (  1163 PWs)   bands (ev):

   -55.5400 -21.8455 -21.8455 -21.7911  -7.5220  -7.5220  -7.5204  -7.5088
    -7.5088  -7.5073  -7.4960  11.8724  12.1965  12.1965  15.7939  15.7939
    16.4856  20.5952  20.5952  22.0862  32.0067  32.0067

          k = 0.2125 0.3536 0.6124 (  1160 PWs)   bands (ev):

   -55.5400 -21.8368 -21.8368 -21.8091  -7.5216  -7.5216  -7.5209  -7.5085
    -7.5085  -7.5078  -7.4962  12.0220  12.1597  12.1597  15.8126  15.8126
    16.3356  20.8064  20.8064  21.5523  32.6344  32.6344

          k = 0.2500 0.3536 0.6124 (  1160 PWs)   bands (ev):

   -55.5400 -21.8277 -21.8277 -21.8276  -7.5213  -7.5213  -7.5213  -7.5083
    -7.5083  -7.5082  -7.4963  12.1249  12.1250  12.1250  15.8186  15.8186
    16.2751  21.0441  21.0441  21.0441  33.1475  33.1476

          k = 0.2250 0.3182 0.5511 (  1172 PWs)   bands (ev):

   -55.5401 -21.8632 -21.8087 -21.8087  -7.5224  -7.5211  -7.5211  -7.5093
    -7.5081  -7.5081  -7.4962  12.0358  12.0775  12.0776  15.7966  15.7967
    16.5875  20.0666  21.5820  21.5821  31.7466  33.3395

          k = 0.2000 0.2828 0.4899 (  1169 PWs)   bands (ev):

   -55.5406 -21.8889 -21.7895 -21.7894  -7.5233  -7.5206  -7.5206  -7.5104
    -7.5078  -7.5078  -7.4953  11.5178  12.0822  12.0822  15.7352  15.7352
    17.5087  19.1150  22.1888  22.1888  30.4880  32.7729

          k = 0.1750 0.2475 0.4287 (  1169 PWs)   bands (ev):

   -55.5415 -21.8993 -21.7714 -21.7713  -7.5237  -7.5202  -7.5202  -7.5116
    -7.5079  -7.5079  -7.4942  10.7561  12.1581  12.1581  15.6405  15.6406
    17.8840  19.1569  22.8646  22.8646  29.3743  32.5720

          k = 0.1500 0.2121 0.3674 (  1169 PWs)   bands (ev):

   -55.5431 -21.8919 -21.7551 -21.7550  -7.5234  -7.5196  -7.5196  -7.5126
    -7.5087  -7.5087  -7.4928   9.9171  12.3133  12.3133  15.5237  15.5237
    16.9288  20.8476  23.6171  23.6171  28.4073  32.7862

          k = 0.1250 0.1768 0.3062 (  1148 PWs)   bands (ev):

   -55.5451 -21.8671 -21.7410 -21.7410  -7.5222  -7.5187  -7.5187  -7.5133
    -7.5098  -7.5097  -7.4908   9.0942  12.5410  12.5410  15.4043  15.4044
    15.9670  22.8197  24.4395  24.4396  27.5879  33.0394

          k = 0.1000 0.1414 0.2449 (  1169 PWs)   bands (ev):

   -55.5476 -21.8306 -21.7305 -21.7305  -7.5210  -7.5184  -7.5184  -7.5144
    -7.5116  -7.5116  -7.4891   8.3448  12.8154  12.8154  15.1119  15.3102
    15.3102  24.9374  25.2768  25.2769  26.9168  31.3564

          k = 0.0750 0.1061 0.1837 (  1169 PWs)   bands (ev):

   -55.5500 -21.7884 -21.7226 -21.7225  -7.5196  -7.5178  -7.5178  -7.5152
    -7.5131  -7.5131  -7.4872   7.7121  13.0904  13.0904  14.4136  15.2716
    15.2717  25.9456  25.9456  26.3945  27.1112  30.2463

          k = 0.0500 0.0707 0.1225 (  1169 PWs)   bands (ev):

   -55.5520 -21.7497 -21.7171 -21.7170  -7.5184  -7.5173  -7.5173  -7.5158
    -7.5146  -7.5146  -7.4852   7.2314  13.3109  13.3109  13.9007  15.3021
    15.3021  26.0212  26.1086  26.1086  29.2206  30.1072

          k = 0.0250 0.0354 0.0612 (  1181 PWs)   bands (ev):

   -55.5534 -21.7229 -21.7142 -21.7141  -7.5175  -7.5173  -7.5172  -7.5161
    -7.5159  -7.5159  -7.4839   6.9305  13.4421  13.4421  13.5884  15.3697
    15.3698  25.7972  25.8669  25.8669  30.8850  30.8850

          k = 0.0000 0.0000 0.0000 (  1157 PWs)   bands (ev):

   -55.5538 -21.7127 -21.7127 -21.7126  -7.5168  -7.5168  -7.5168  -7.5161
    -7.5161  -7.5161  -7.4830   6.8281  13.4837  13.4837  13.4837  15.4052
    15.4052  25.7226  25.7226  25.7226  31.8335  31.8335

          k = 0.0000 0.0000 0.0612 (  1179 PWs)   bands (ev):

   -55.5536 -21.7190 -21.7151 -21.7131  -7.5174  -7.5172  -7.5172  -7.5161
    -7.5161  -7.5160  -7.4837   6.8965  13.4474  13.4749  13.5438  15.3539
    15.4068  25.7654  25.8183  25.8354  30.8758  31.0279

          k = 0.0000 0.0000 0.1225 (  1177 PWs)   bands (ev):

   -55.5526 -21.7359 -21.7210 -21.7129  -7.5180  -7.5175  -7.5173  -7.5158
    -7.5155  -7.5152  -7.4846   7.0990  13.3445  13.4393  13.7226  15.2299
    15.4134  25.8507  26.0158  26.1662  29.8045  29.8529

          k = 0.0000 0.0000 0.1837 (  1169 PWs)   bands (ev):

   -55.5511 -21.7621 -21.7304 -21.7125  -7.5187  -7.5177  -7.5174  -7.5151
    -7.5145  -7.5142  -7.4859   7.4266  13.1908  13.3539  14.0152  15.1034
    15.4290  25.8270  25.9486  26.6930  28.8704  29.1940

          k = 0.0000 0.0000 0.2449 (  1162 PWs)   bands (ev):

   -55.5493 -21.7951 -21.7418 -21.7122  -7.5198  -7.5181  -7.5179  -7.5143
    -7.5132  -7.5127  -7.4875   7.8628  13.0071  13.2082  14.4127  15.0397
    15.4573  25.1224  25.4989  27.3833  28.7511  29.1152

          k = 0.0000 0.0000 0.3062 (  1164 PWs)   bands (ev):

   -55.5472 -21.8315 -21.7547 -21.7119  -7.5210  -7.5187  -7.5186  -7.5135
    -7.5120  -7.5111  -7.4892   8.3795  12.8150  13.0341  14.9005  15.0557
    15.5010  23.8169  24.9076  28.1716  28.1957  29.1395

          k = 0.0000 0.0000 0.3674 (  1158 PWs)   bands (ev):

   -55.5452 -21.8677 -21.7674 -21.7115  -7.5222  -7.5194  -7.5191  -7.5125
    -7.5108  -7.5094  -7.4908   8.9302  12.6334  12.9009  15.1230  15.4552
    15.5590  22.4272  24.2498  27.0176  29.0784  29.6202

          k = 0.0000 0.0000 0.4287 (  1160 PWs)   bands (ev):

   -55.5433 -21.9002 -21.7790 -21.7112  -7.5234  -7.5201  -7.5196  -7.5117
    -7.5097  -7.5080  -7.4922   9.4430  12.4774  12.8881  15.1971  15.6250
    16.0386  21.1188  23.6546  25.9309  29.9622  30.0421

          k = 0.0000 0.0000 0.4899 (  1166 PWs)   bands (ev):

   -55.5419 -21.9259 -21.7881 -21.7113  -7.5246  -7.5206  -7.5201  -7.5111
    -7.5090  -7.5068  -7.4933   9.8333  12.3583  13.0462  15.2323  15.6878
    16.5872  20.0074  23.1891  25.0057  30.3512  30.7503

          k = 0.0000 0.0000 0.5511 (  1174 PWs)   bands (ev):

   -55.5410 -21.9424 -21.7941 -21.7113  -7.5252  -7.5211  -7.5205  -7.5107
    -7.5085  -7.5062  -7.4941  10.0547  12.2840  13.3139  15.2032  15.7338
    17.0009  19.2324  22.8936  24.3597  30.5197  31.0777

          k = 0.0000 0.0000 0.6124 (  1180 PWs)   bands (ev):

   -55.5407 -21.9480 -21.7962 -21.7114  -7.5256  -7.5213  -7.5206  -7.5105
    -7.5085  -7.5060  -7.4944  10.1224  12.2587  13.4616  15.1667  15.7507
    17.1592  18.9492  22.7923  24.1229  30.5589  30.9833

     Writing all to output data dir ./work/POSCAR.save/

     init_run     :      0.48s CPU      0.54s WALL (       1 calls)
     electrons    :      1.68s CPU      1.97s WALL (       1 calls)

     Called by init_run:
     wfcinit      :      0.00s CPU      0.04s WALL (       1 calls)
     potinit      :      0.23s CPU      0.25s WALL (       1 calls)
     hinit0       :      0.18s CPU      0.18s WALL (       1 calls)

     Called by electrons:
     c_bands      :      1.67s CPU      1.97s WALL (       1 calls)
     v_of_rho     :      0.00s CPU      0.00s WALL (       1 calls)
     newd         :      0.04s CPU      0.04s WALL (       1 calls)
     PAW_pot      :      0.11s CPU      0.12s WALL (       1 calls)

     Called by c_bands:
     init_us_2    :      0.00s CPU      0.00s WALL (      81 calls)
     init_us_2:cp :      0.00s CPU      0.00s WALL (      81 calls)
     cegterg      :      1.51s CPU      1.53s WALL (      85 calls)

     Called by *egterg:
     cdiaghg      :      0.41s CPU      0.42s WALL (    1323 calls)
     h_psi        :      0.96s CPU      0.98s WALL (    1408 calls)
     s_psi        :      0.02s CPU      0.02s WALL (    1408 calls)
     g_psi        :      0.01s CPU      0.01s WALL (    1242 calls)

     Called by h_psi:
     h_psi:calbec :      0.05s CPU      0.05s WALL (    1408 calls)
     vloc_psi     :      0.89s CPU      0.90s WALL (    1408 calls)
     add_vuspsi   :      0.02s CPU      0.02s WALL (    1408 calls)

     General routines
     calbec       :      0.05s CPU      0.05s WALL (    1408 calls)
     fft          :      0.09s CPU      0.09s WALL (      13 calls)
     ffts         :      0.11s CPU      0.11s WALL (       1 calls)
     fftw         :      0.83s CPU      0.84s WALL (   28142 calls)
     interpolate  :      0.11s CPU      0.11s WALL (       1 calls)
     davcio       :      0.00s CPU      0.15s WALL (     162 calls)

     Parallel routines

     PWSCF        :      2.48s CPU      3.71s WALL


   This run was terminated on:  20:42: 5  11Nov2023            

=------------------------------------------------------------------------------=
   JOB DONE.
=------------------------------------------------------------------------------=
