
     Program PWSCF v.7.1 starts on 11Nov2023 at 20:39:49 

     This program is part of the open-source Quantum ESPRESSO suite
     for quantum simulation of materials; please cite
         "P. Giannozzi et al., J. Phys.:Condens. Matter 21 395502 (2009);
         "P. Giannozzi et al., J. Phys.:Condens. Matter 29 465901 (2017);
         "P. Giannozzi et al., J. Chem. Phys. 152 154105 (2020);
          URL http://www.quantum-espresso.org", 
     in publications or presentations arising from this work. More details at
     http://www.quantum-espresso.org/quote

     Parallel version (MPI & OpenMP), running on      10 processor cores
     Number of MPI processes:                10
     Threads/MPI process:                     1

     MPI processes distributed on     1 nodes
     15043 MiB available memory on the printing compute node when the environment starts

     Waiting for input...
     Reading input from standard input

     Current dimensions of program PWSCF are:
     Max number of different atomic species (ntypx) = 10
     Max number of k-points (npk) =  40000
     Max angular momentum in pseudopotentials (lmaxx) =  4
     file Ta.pbe-spfn-kjpaw_psl.1.0.0.UPF: wavefunction(s)  5S 5P 4F renormalized
     Message from routine setup:
     using ibrav=0 with symmetry is DISCOURAGED, use correct ibrav instead

     R & G space division:  proc/nbgrp/npool/nimage =      10
     Subspace diagonalization in iterative solution of the eigenvalue problem:
     a serial algorithm will be used


     Parallelization info
     --------------------
     sticks:   dense  smooth     PW     G-vecs:    dense   smooth      PW
     Min         155      60     21                 3902      939     207
     Max         156      61     22                 3905      942     210
     Sum        1551     607    219                39039     9405    2093

     Using Slab Decomposition



     bravais-lattice index     =            0
     lattice parameter (alat)  =       6.2782  a.u.
     unit-cell volume          =     190.4966 (a.u.)^3
     number of atoms/cell      =            1
     number of atomic types    =            1
     number of electrons       =        27.00
     number of Kohn-Sham states=           18
     kinetic-energy cutoff     =      51.0000  Ry
     charge density cutoff     =     530.0000  Ry
     scf convergence threshold =      7.3E-05
     mixing beta               =       0.7000
     number of iterations used =            8  plain     mixing
     Exchange-correlation= SLA  PW   PBX  PBC
                           (   1   4   3   4   0   0   0)

     celldm(1)=   6.278218  celldm(2)=   0.000000  celldm(3)=   0.000000
     celldm(4)=   0.000000  celldm(5)=   0.000000  celldm(6)=   0.000000

     crystal axes: (cart. coord. in units of alat)
               a(1) = (   1.000000   0.000000   0.000000 )  
               a(2) = (  -0.333333   0.942809   0.000000 )  
               a(3) = (  -0.333333  -0.471405   0.816497 )  

     reciprocal axes: (cart. coord. in units 2 pi/alat)
               b(1) = (  1.000000  0.353553  0.612372 )  
               b(2) = ( -0.000000  1.060660  0.612373 )  
               b(3) = (  0.000000 -0.000000  1.224745 )  


     PseudoPot. # 1 for Ta read from file:
     ./../../../pseudo/psl100_PBE/Ta.pbe-spfn-kjpaw_psl.1.0.0.UPF
     MD5 check sum: f2c76d35921911ba13dce2af2c43b235
     Pseudo is Projector augmented-wave + core cor, Zval = 27.0
     Generated using 'atomic' code by A. Dal Corso  v.7.2
     Shape of augmentation charge: PSQ
     Using radial grid of 1273 points,  8 beta functions with: 
                l(1) =   0
                l(2) =   0
                l(3) =   1
                l(4) =   1
                l(5) =   2
                l(6) =   2
                l(7) =   3
                l(8) =   3
     Q(r) pseudized with 0 coefficients 


     atomic species   valence    mass     pseudopotential
        Ta            27.00   180.94700     Ta( 1.00)

      4 Sym. Ops., with inversion, found



   Cartesian axes

     site n.     atom                  positions (alat units)
         1           Ta  tau(   1) = (   0.0000000   0.0000000   0.0000000  )

     number of k points=   476  Methfessel-Paxton smearing, width (Ry)=  0.0200

     Number of k-points >= 100: set verbosity='high' to print them.

     Dense  grid:    39039 G-vectors     FFT dimensions: (  45,  45,  45)

     Smooth grid:     9405 G-vectors     FFT dimensions: (  30,  30,  30)

     Estimated max dynamical RAM per process >      55.24 MB

     Estimated total dynamical RAM >     552.45 MB

     Initial potential from superposition of free atoms

     starting charge      26.9992, renormalised to      27.0000
     Starting wfcs are   17 randomized atomic wfcs +    1 random wfcs
     Checking if some PAW data can be deallocated... 

     total cpu time spent up to now is        1.6 secs

     per-process dynamical memory:    37.6 Mb

     Self-consistent Calculation

     iteration #  1     ecut=    51.00 Ry     beta= 0.70
     Davidson diagonalization with overlap
     ethr =  1.00E-02,  avg # of iterations =  3.1

     Threshold (ethr) on eigenvalues was too large:
     Diagonalizing with lowered threshold

     Davidson diagonalization with overlap
     ethr =  2.40E-04,  avg # of iterations =  1.5

     total cpu time spent up to now is       10.5 secs

     total energy              =   -1229.07170799 Ry
     estimated scf accuracy    <       0.06948828 Ry

     iteration #  2     ecut=    51.00 Ry     beta= 0.70
     Davidson diagonalization with overlap
     ethr =  2.57E-04,  avg # of iterations =  2.0

     total cpu time spent up to now is       15.9 secs

     total energy              =   -1229.08746688 Ry
     estimated scf accuracy    <       0.01780924 Ry

     iteration #  3     ecut=    51.00 Ry     beta= 0.70
     Davidson diagonalization with overlap
     ethr =  6.60E-05,  avg # of iterations =  2.1

     total cpu time spent up to now is       20.9 secs

     total energy              =   -1229.09141764 Ry
     estimated scf accuracy    <       0.00033846 Ry

     iteration #  4     ecut=    51.00 Ry     beta= 0.70
     Davidson diagonalization with overlap
     ethr =  1.25E-06,  avg # of iterations =  2.1

     total cpu time spent up to now is       25.9 secs

     End of self-consistent calculation

     Number of k-points >= 100: set verbosity='high' to print the bands.

     the Fermi energy is    13.0034 ev

!    total energy              =   -1229.09141504 Ry
     total all-electron energy =    -31209.713778 Ry
     estimated scf accuracy    <       0.00004736 Ry
     smearing contrib. (-TS)   =      -0.00008932 Ry
     internal energy E=F+TS    =   -1229.09132572 Ry

     The total energy is F=E-TS. E is the sum of the following terms:
     one-electron contribution =    -539.12161102 Ry
     hartree contribution      =     299.76205991 Ry
     xc contribution           =     -67.10730914 Ry
     ewald contribution        =    -365.95836356 Ry
     one-center paw contrib.   =    -556.66610190 Ry

     convergence has been achieved in   4 iterations

     Writing all to output data dir ./work/POSCAR.save/

     init_run     :      1.22s CPU      1.26s WALL (       1 calls)
     electrons    :     13.53s CPU     24.35s WALL (       1 calls)

     Called by init_run:
     wfcinit      :      0.73s CPU      0.75s WALL (       1 calls)
     potinit      :      0.25s CPU      0.28s WALL (       1 calls)
     hinit0       :      0.17s CPU      0.17s WALL (       1 calls)

     Called by electrons:
     c_bands      :     11.14s CPU     21.78s WALL (       5 calls)
     sum_band     :      1.79s CPU      1.90s WALL (       5 calls)
     v_of_rho     :      0.02s CPU      0.02s WALL (       5 calls)
     newd         :      0.13s CPU      0.13s WALL (       5 calls)
     PAW_pot      :      0.60s CPU      0.62s WALL (       5 calls)
     mix_rho      :      0.00s CPU      0.00s WALL (       5 calls)

     Called by c_bands:
     init_us_2    :      0.18s CPU      0.19s WALL (    5236 calls)
     init_us_2:cp :      0.17s CPU      0.19s WALL (    5236 calls)
     cegterg      :      9.80s CPU     10.69s WALL (    2380 calls)

     Called by *egterg:
     cdiaghg      :      1.33s CPU      1.44s WALL (    7052 calls)
     h_psi        :      7.75s CPU      8.43s WALL (    8004 calls)
     s_psi        :      0.13s CPU      0.14s WALL (    8004 calls)
     g_psi        :      0.03s CPU      0.04s WALL (    5148 calls)

     Called by h_psi:
     h_psi:calbec :      0.38s CPU      0.42s WALL (    8004 calls)
     vloc_psi     :      7.20s CPU      7.83s WALL (    8004 calls)
     add_vuspsi   :      0.14s CPU      0.15s WALL (    8004 calls)

     General routines
     calbec       :      0.50s CPU      0.54s WALL (   10384 calls)
     fft          :      0.10s CPU      0.10s WALL (      64 calls)
     ffts         :      0.11s CPU      0.11s WALL (      10 calls)
     fftw         :      7.98s CPU      8.63s WALL (  267600 calls)
     interpolate  :      0.11s CPU      0.11s WALL (       5 calls)

     Parallel routines

     PWSCF        :     15.32s CPU     30.93s WALL


   This run was terminated on:  20:40:20  11Nov2023            

=------------------------------------------------------------------------------=
   JOB DONE.
=------------------------------------------------------------------------------=
