
     Program PWSCF v.7.1 starts on 16Nov2023 at  9:34:11 

     This program is part of the open-source Quantum ESPRESSO suite
     for quantum simulation of materials; please cite
         "P. Giannozzi et al., J. Phys.:Condens. Matter 21 395502 (2009);
         "P. Giannozzi et al., J. Phys.:Condens. Matter 29 465901 (2017);
         "P. Giannozzi et al., J. Chem. Phys. 152 154105 (2020);
          URL http://www.quantum-espresso.org", 
     in publications or presentations arising from this work. More details at
     http://www.quantum-espresso.org/quote

     Parallel version (MPI & OpenMP), running on      10 processor cores
     Number of MPI processes:                10
     Threads/MPI process:                     1

     MPI processes distributed on     1 nodes
     14947 MiB available memory on the printing compute node when the environment starts

     Waiting for input...
     Reading input from standard input

     Current dimensions of program PWSCF are:
     Max number of different atomic species (ntypx) = 10
     Max number of k-points (npk) =  40000
     Max angular momentum in pseudopotentials (lmaxx) =  4

     Atomic positions and unit cell read from directory:
     ./work/POSCAR.save/

     file Ne.pbe-n-kjpaw_psl.1.0.0.UPF: wavefunction(s)  2P renormalized
     Message from routine setup:
     using ibrav=0 with symmetry is DISCOURAGED, use correct ibrav instead

     R & G space division:  proc/nbgrp/npool/nimage =      10
     Subspace diagonalization in iterative solution of the eigenvalue problem:
     a serial algorithm will be used


     Parallelization info
     --------------------
     sticks:   dense  smooth     PW     G-vecs:    dense   smooth      PW
     Min          59      49     15                  971      722     124
     Max          60      50     16                  974      725     127
     Sum         595     499    151                 9721     7239    1243

     Using Slab Decomposition



     bravais-lattice index     =            0
     lattice parameter (alat)  =       5.7509  a.u.
     unit-cell volume          =     134.4927 (a.u.)^3
     number of atoms/cell      =            1
     number of atomic types    =            1
     number of electrons       =         8.00
     number of Kohn-Sham states=            8
     kinetic-energy cutoff     =      54.0000  Ry
     charge density cutoff     =     264.0000  Ry
     Exchange-correlation= SLA  PW   PBX  PBC
                           (   1   4   3   4   0   0   0)

     celldm(1)=   5.750928  celldm(2)=   0.000000  celldm(3)=   0.000000
     celldm(4)=   0.000000  celldm(5)=   0.000000  celldm(6)=   0.000000

     crystal axes: (cart. coord. in units of alat)
               a(1) = (   1.000000   0.000000   0.000000 )  
               a(2) = (   0.500000   0.866025   0.000000 )  
               a(3) = (   0.500000   0.288675   0.816497 )  

     reciprocal axes: (cart. coord. in units 2 pi/alat)
               b(1) = (  1.000000 -0.577350 -0.408248 )  
               b(2) = (  0.000000  1.154701 -0.408248 )  
               b(3) = (  0.000000  0.000000  1.224745 )  


     PseudoPot. # 1 for Ne read from file:
     ./../../../pseudo/psl100_PBE/Ne.pbe-n-kjpaw_psl.1.0.0.UPF
     MD5 check sum: f281d4910e17ad8c30c9d2e166e53767
     Pseudo is Projector augmented-wave + core cor, Zval =  8.0
     Generated using 'atomic' code by A. Dal Corso  v.7.2
     Shape of augmentation charge: PSQ
     Using radial grid of 1113 points,  4 beta functions with: 
                l(1) =   0
                l(2) =   0
                l(3) =   1
                l(4) =   1
     Q(r) pseudized with 0 coefficients 


     atomic species   valence    mass     pseudopotential
        Ne             8.00    20.17970     Ne( 1.00)

     12 Sym. Ops., with inversion, found



   Cartesian axes

     site n.     atom                  positions (alat units)
         1           Ne  tau(   1) = (   0.0000000   0.0000000   0.0000000  )

     number of k points=   101  Methfessel-Paxton smearing, width (Ry)=  0.0200

     Number of k-points >= 100: set verbosity='high' to print them.

     Dense  grid:     9721 G-vectors     FFT dimensions: (  30,  30,  30)

     Smooth grid:     7239 G-vectors     FFT dimensions: (  27,  27,  27)

     Estimated max dynamical RAM per process >       1.36 MB

     Estimated total dynamical RAM >      13.62 MB

     The potential is recalculated from file :
     ./work/POSCAR.save/charge-density

     Starting wfcs are    4 randomized atomic wfcs +    4 random wfcs
     Checking if some PAW data can be deallocated... 

     Band Structure Calculation
     Davidson diagonalization with overlap

     ethr =  9.13E-07,  avg # of iterations = 13.4

     total cpu time spent up to now is        1.4 secs

     End of band structure calculation

     Number of k-points >= 100: set verbosity='high' to print the bands.

     Writing all to output data dir ./work/POSCAR.save/

     init_run     :      0.25s CPU      0.26s WALL (       1 calls)
     electrons    :      0.82s CPU      0.89s WALL (       1 calls)

     Called by init_run:
     wfcinit      :      0.00s CPU      0.00s WALL (       1 calls)
     potinit      :      0.07s CPU      0.07s WALL (       1 calls)
     hinit0       :      0.16s CPU      0.16s WALL (       1 calls)

     Called by electrons:
     c_bands      :      0.82s CPU      0.89s WALL (       1 calls)
     v_of_rho     :      0.00s CPU      0.00s WALL (       1 calls)
     newd         :      0.01s CPU      0.01s WALL (       1 calls)
     PAW_pot      :      0.01s CPU      0.01s WALL (       1 calls)

     Called by c_bands:
     init_us_2    :      0.00s CPU      0.00s WALL (     101 calls)
     init_us_2:cp :      0.00s CPU      0.00s WALL (     101 calls)
     cegterg      :      0.72s CPU      0.73s WALL (     102 calls)

     Called by *egterg:
     cdiaghg      :      0.08s CPU      0.09s WALL (    1453 calls)
     h_psi        :      0.60s CPU      0.61s WALL (    1555 calls)
     s_psi        :      0.00s CPU      0.00s WALL (    1555 calls)
     g_psi        :      0.00s CPU      0.00s WALL (    1352 calls)

     Called by h_psi:
     h_psi:calbec :      0.04s CPU      0.04s WALL (    1555 calls)
     vloc_psi     :      0.55s CPU      0.56s WALL (    1555 calls)
     add_vuspsi   :      0.00s CPU      0.00s WALL (    1555 calls)

     General routines
     calbec       :      0.04s CPU      0.04s WALL (    1555 calls)
     fft          :      0.16s CPU      0.16s WALL (      13 calls)
     ffts         :      0.05s CPU      0.05s WALL (       1 calls)
     fftw         :      0.52s CPU      0.53s WALL (   13622 calls)
     interpolate  :      0.05s CPU      0.05s WALL (       1 calls)
     davcio       :      0.00s CPU      0.01s WALL (     202 calls)

     Parallel routines

     PWSCF        :      1.32s CPU      1.84s WALL


   This run was terminated on:   9:34:13  16Nov2023            

=------------------------------------------------------------------------------=
   JOB DONE.
=------------------------------------------------------------------------------=
