
     Program PWSCF v.7.1 starts on 15May2024 at 22:39:40 

     This program is part of the open-source Quantum ESPRESSO suite
     for quantum simulation of materials; please cite
         "P. Giannozzi et al., J. Phys.:Condens. Matter 21 395502 (2009);
         "P. Giannozzi et al., J. Phys.:Condens. Matter 29 465901 (2017);
         "P. Giannozzi et al., J. Chem. Phys. 152 154105 (2020);
          URL http://www.quantum-espresso.org", 
     in publications or presentations arising from this work. More details at
     http://www.quantum-espresso.org/quote

     Parallel version (MPI & OpenMP), running on      10 processor cores
     Number of MPI processes:                10
     Threads/MPI process:                     1

     MPI processes distributed on     1 nodes
     14552 MiB available memory on the printing compute node when the environment starts

     Waiting for input...
     Reading input from standard input

     Current dimensions of program PWSCF are:
     Max number of different atomic species (ntypx) = 10
     Max number of k-points (npk) =  40000
     Max angular momentum in pseudopotentials (lmaxx) =  4

     Atomic positions and unit cell read from directory:
     ./work/POSCAR.save/

     file Ce.pbe-spdn-kjpaw_psl.1.0.0.UPF: wavefunction(s)  5D renormalized
     Message from routine setup:
     using ibrav=0 with symmetry is DISCOURAGED, use correct ibrav instead

     R & G space division:  proc/nbgrp/npool/nimage =      10
     Subspace diagonalization in iterative solution of the eigenvalue problem:
     a serial algorithm will be used


     Parallelization info
     --------------------
     sticks:   dense  smooth     PW     G-vecs:    dense   smooth      PW
     Min          54      43     14                  944      709     134
     Max          55      44     15                  947      714     137
     Sum         545     437    145                 9459     7123    1357

     Using Slab Decomposition



     bravais-lattice index     =            0
     lattice parameter (alat)  =       6.1742  a.u.
     unit-cell volume          =     235.3703 (a.u.)^3
     number of atoms/cell      =            1
     number of atomic types    =            1
     number of electrons       =        11.00
     number of Kohn-Sham states=           26
     kinetic-energy cutoff     =      37.0000  Ry
     charge density cutoff     =     179.0000  Ry
     Exchange-correlation= SLA  PW   PBX  PBC
                           (   1   4   3   4   0   0   0)

     celldm(1)=   6.174245  celldm(2)=   0.000000  celldm(3)=   0.000000
     celldm(4)=   0.000000  celldm(5)=   0.000000  celldm(6)=   0.000000

     crystal axes: (cart. coord. in units of alat)
               a(1) = (   1.000000   0.000000   0.000000 )  
               a(2) = (   0.000000   1.000000   0.000000 )  
               a(3) = (   0.000000   0.000000   1.000000 )  

     reciprocal axes: (cart. coord. in units 2 pi/alat)
               b(1) = (  1.000000  0.000000  0.000000 )  
               b(2) = (  0.000000  1.000000  0.000000 )  
               b(3) = (  0.000000  0.000000  1.000000 )  


     PseudoPot. # 1 for Ce read from file:
     ./../../../../pseudo/psl100_PBE/Ce.pbe-spdn-kjpaw_psl.1.0.0.UPF
     MD5 check sum: 1a25380276e46fcecd5a173acdad072c
     Pseudo is Projector augmented-wave + core cor, Zval = 11.0
     Generated using 'atomic' code by A. Dal Corso  v.7.2
     Shape of augmentation charge: PSQ
     Using radial grid of 1255 points,  6 beta functions with: 
                l(1) =   0
                l(2) =   0
                l(3) =   1
                l(4) =   1
                l(5) =   2
                l(6) =   2
     Q(r) pseudized with 0 coefficients 


     atomic species   valence    mass     pseudopotential
        Ce            11.00   140.11600     Ce( 1.00)

     48 Sym. Ops., with inversion, found



   Cartesian axes

     site n.     atom                  positions (alat units)
         1           Ce  tau(   1) = (   0.0000000   0.0000000   0.0000000  )

     number of k points=    91  Methfessel-Paxton smearing, width (Ry)=  0.0200
                       cart. coord. in units 2pi/alat
        k(    1) = (   0.0000000   0.5000000   0.5000000), wk =   0.0219780
        k(    2) = (   0.0500000   0.5000000   0.5000000), wk =   0.0219780
        k(    3) = (   0.1000000   0.5000000   0.5000000), wk =   0.0219780
        k(    4) = (   0.1500000   0.5000000   0.5000000), wk =   0.0219780
        k(    5) = (   0.2000000   0.5000000   0.5000000), wk =   0.0219780
        k(    6) = (   0.2500000   0.5000000   0.5000000), wk =   0.0219780
        k(    7) = (   0.3000000   0.5000000   0.5000000), wk =   0.0219780
        k(    8) = (   0.3500000   0.5000000   0.5000000), wk =   0.0219780
        k(    9) = (   0.4000000   0.5000000   0.5000000), wk =   0.0219780
        k(   10) = (   0.4500000   0.5000000   0.5000000), wk =   0.0219780
        k(   11) = (   0.5000000   0.5000000   0.5000000), wk =   0.0219780
        k(   12) = (   0.4750000   0.4750000   0.4750000), wk =   0.0219780
        k(   13) = (   0.4500000   0.4500000   0.4500000), wk =   0.0219780
        k(   14) = (   0.4250000   0.4250000   0.4250000), wk =   0.0219780
        k(   15) = (   0.4000000   0.4000000   0.4000000), wk =   0.0219780
        k(   16) = (   0.3750000   0.3750000   0.3750000), wk =   0.0219780
        k(   17) = (   0.3500000   0.3500000   0.3500000), wk =   0.0219780
        k(   18) = (   0.3250000   0.3250000   0.3250000), wk =   0.0219780
        k(   19) = (   0.3000000   0.3000000   0.3000000), wk =   0.0219780
        k(   20) = (   0.2750000   0.2750000   0.2750000), wk =   0.0219780
        k(   21) = (   0.2500000   0.2500000   0.2500000), wk =   0.0219780
        k(   22) = (   0.2250000   0.2250000   0.2250000), wk =   0.0219780
        k(   23) = (   0.2000000   0.2000000   0.2000000), wk =   0.0219780
        k(   24) = (   0.1750000   0.1750000   0.1750000), wk =   0.0219780
        k(   25) = (   0.1500000   0.1500000   0.1500000), wk =   0.0219780
        k(   26) = (   0.1250000   0.1250000   0.1250000), wk =   0.0219780
        k(   27) = (   0.1000000   0.1000000   0.1000000), wk =   0.0219780
        k(   28) = (   0.0750000   0.0750000   0.0750000), wk =   0.0219780
        k(   29) = (   0.0500000   0.0500000   0.0500000), wk =   0.0219780
        k(   30) = (   0.0250000   0.0250000   0.0250000), wk =   0.0219780
        k(   31) = (   0.0000000   0.0000000   0.0000000), wk =   0.0219780
        k(   32) = (   0.0500000   0.0000000   0.0000000), wk =   0.0219780
        k(   33) = (   0.1000000   0.0000000   0.0000000), wk =   0.0219780
        k(   34) = (   0.1500000   0.0000000   0.0000000), wk =   0.0219780
        k(   35) = (   0.2000000   0.0000000   0.0000000), wk =   0.0219780
        k(   36) = (   0.2500000   0.0000000   0.0000000), wk =   0.0219780
        k(   37) = (   0.3000000   0.0000000   0.0000000), wk =   0.0219780
        k(   38) = (   0.3500000   0.0000000   0.0000000), wk =   0.0219780
        k(   39) = (   0.4000000   0.0000000   0.0000000), wk =   0.0219780
        k(   40) = (   0.4500000   0.0000000   0.0000000), wk =   0.0219780
        k(   41) = (   0.5000000   0.0000000   0.0000000), wk =   0.0219780
        k(   42) = (   0.5000000   0.0500000   0.0000000), wk =   0.0219780
        k(   43) = (   0.5000000   0.1000000   0.0000000), wk =   0.0219780
        k(   44) = (   0.5000000   0.1500000   0.0000000), wk =   0.0219780
        k(   45) = (   0.5000000   0.2000000   0.0000000), wk =   0.0219780
        k(   46) = (   0.5000000   0.2500000   0.0000000), wk =   0.0219780
        k(   47) = (   0.5000000   0.3000000   0.0000000), wk =   0.0219780
        k(   48) = (   0.5000000   0.3500000   0.0000000), wk =   0.0219780
        k(   49) = (   0.5000000   0.4000000   0.0000000), wk =   0.0219780
        k(   50) = (   0.5000000   0.4500000   0.0000000), wk =   0.0219780
        k(   51) = (   0.5000000   0.5000000   0.0000000), wk =   0.0219780
        k(   52) = (   0.4750000   0.4750000   0.0000000), wk =   0.0219780
        k(   53) = (   0.4500000   0.4500000   0.0000000), wk =   0.0219780
        k(   54) = (   0.4250000   0.4250000   0.0000000), wk =   0.0219780
        k(   55) = (   0.4000000   0.4000000   0.0000000), wk =   0.0219780
        k(   56) = (   0.3750000   0.3750000   0.0000000), wk =   0.0219780
        k(   57) = (   0.3500000   0.3500000   0.0000000), wk =   0.0219780
        k(   58) = (   0.3250000   0.3250000   0.0000000), wk =   0.0219780
        k(   59) = (   0.3000000   0.3000000   0.0000000), wk =   0.0219780
        k(   60) = (   0.2750000   0.2750000   0.0000000), wk =   0.0219780
        k(   61) = (   0.2500000   0.2500000   0.0000000), wk =   0.0219780
        k(   62) = (   0.2250000   0.2250000   0.0000000), wk =   0.0219780
        k(   63) = (   0.2000000   0.2000000   0.0000000), wk =   0.0219780
        k(   64) = (   0.1750000   0.1750000   0.0000000), wk =   0.0219780
        k(   65) = (   0.1500000   0.1500000   0.0000000), wk =   0.0219780
        k(   66) = (   0.1250000   0.1250000   0.0000000), wk =   0.0219780
        k(   67) = (   0.1000000   0.1000000   0.0000000), wk =   0.0219780
        k(   68) = (   0.0750000   0.0750000   0.0000000), wk =   0.0219780
        k(   69) = (   0.0500000   0.0500000   0.0000000), wk =   0.0219780
        k(   70) = (   0.0250000   0.0250000   0.0000000), wk =   0.0219780
        k(   71) = (   0.0000000   0.0000000   0.0000000), wk =   0.0219780
        k(   72) = (   0.0250000   0.0250000   0.0250000), wk =   0.0219780
        k(   73) = (   0.0500000   0.0500000   0.0500000), wk =   0.0219780
        k(   74) = (   0.0750000   0.0750000   0.0750000), wk =   0.0219780
        k(   75) = (   0.1000000   0.1000000   0.1000000), wk =   0.0219780
        k(   76) = (   0.1250000   0.1250000   0.1250000), wk =   0.0219780
        k(   77) = (   0.1500000   0.1500000   0.1500000), wk =   0.0219780
        k(   78) = (   0.1750000   0.1750000   0.1750000), wk =   0.0219780
        k(   79) = (   0.2000000   0.2000000   0.2000000), wk =   0.0219780
        k(   80) = (   0.2250000   0.2250000   0.2250000), wk =   0.0219780
        k(   81) = (   0.2500000   0.2500000   0.2500000), wk =   0.0219780
        k(   82) = (   0.2750000   0.2750000   0.2750000), wk =   0.0219780
        k(   83) = (   0.3000000   0.3000000   0.3000000), wk =   0.0219780
        k(   84) = (   0.3250000   0.3250000   0.3250000), wk =   0.0219780
        k(   85) = (   0.3500000   0.3500000   0.3500000), wk =   0.0219780
        k(   86) = (   0.3750000   0.3750000   0.3750000), wk =   0.0219780
        k(   87) = (   0.4000000   0.4000000   0.4000000), wk =   0.0219780
        k(   88) = (   0.4250000   0.4250000   0.4250000), wk =   0.0219780
        k(   89) = (   0.4500000   0.4500000   0.4500000), wk =   0.0219780
        k(   90) = (   0.4750000   0.4750000   0.4750000), wk =   0.0219780
        k(   91) = (   0.5000000   0.5000000   0.5000000), wk =   0.0219780

     Dense  grid:     9459 G-vectors     FFT dimensions: (  27,  27,  27)

     Smooth grid:     7123 G-vectors     FFT dimensions: (  24,  24,  24)

     Estimated max dynamical RAM per process >       4.11 MB

     Estimated total dynamical RAM >      41.13 MB

     The potential is recalculated from file :
     ./work/POSCAR.save/charge-density

     Starting wfcs are   13 randomized atomic wfcs +   13 random wfcs
     Checking if some PAW data can be deallocated... 

     Band Structure Calculation
     Davidson diagonalization with overlap

     ethr =  6.64E-07,  avg # of iterations = 18.0

     total cpu time spent up to now is        3.4 secs

     End of band structure calculation

          k = 0.0000 0.5000 0.5000 (   888 PWs)   bands (ev):

   -23.1846  -7.0326  -7.0326  -5.0880   8.8129  11.8053  15.0152  15.0152
    16.8708  16.8708  20.3250  23.0311  24.0291  24.1248  24.1248  25.7371
    30.4674  32.7007  32.7007  36.9900  37.1804  37.2406  38.0366  38.0366
    42.8939  42.8939

          k = 0.0500 0.5000 0.5000 (   880 PWs)   bands (ev):

   -23.1796  -7.0264  -7.0264  -5.1354   8.8375  11.9383  14.6052  14.6052
    17.3192  17.3192  20.3325  22.2946  24.1813  24.1813  24.7657  25.7392
    30.5532  32.7184  32.7184  36.8711  37.0533  37.2691  37.7682  37.7682
    42.9482  43.2319

          k = 0.1000 0.5000 0.5000 (   892 PWs)   bands (ev):

   -23.1649  -7.0083  -7.0083  -5.2707   8.9104  12.3302  13.8507  13.8507
    18.1811  18.1811  20.3543  21.2464  24.3565  24.3565  25.7416  25.7955
    30.8273  32.7703  32.7703  36.5395  36.7121  37.1261  37.1261  37.3540
    42.1654  42.3872

          k = 0.1500 0.5000 0.5000 (   892 PWs)   bands (ev):

   -23.1419  -6.9799  -6.9799  -5.4749   9.0291  12.9609  13.0750  13.0750
    19.1099  19.1099  20.2188  20.3887  24.6664  24.6664  25.7317  26.7370
    31.3340  32.8536  32.8536  36.0570  36.2451  36.3473  36.3473  37.4931
    40.0901  41.7098

          k = 0.2000 0.5000 0.5000 (   896 PWs)   bands (ev):

   -23.1127  -6.9438  -6.9438  -5.7223   9.1886  12.3547  12.3547  13.8023
    19.2520  19.9921  19.9921  20.4326  25.1343  25.1343  25.6848  27.5001
    32.1124  32.9627  32.9627  35.4894  35.5651  35.5651  35.7331  37.6824
    38.0960  41.0436

          k = 0.2500 0.5000 0.5000 (   912 PWs)   bands (ev):

   -23.0800  -6.9032  -6.9032  -5.9851   9.3810  11.7176  11.7176  14.8220
    18.3664  20.4822  20.7600  20.7600  25.5587  25.7759  25.7759  28.0639
    33.0883  33.0883  33.1407  34.8499  34.8499  34.8872  35.2344  36.2685
    37.9149  40.4678

          k = 0.3000 0.5000 0.5000 (   904 PWs)   bands (ev):

   -23.0469  -6.8620  -6.8620  -6.2371   9.5939  11.1790  11.1790  15.9860
    17.5807  20.5329  21.3760  21.3760  25.2893  26.5730  26.5730  28.4649
    33.2140  33.2140  34.2446  34.2546  34.2546  34.3145  34.7442  34.7877
    38.1790  40.0651

          k = 0.3500 0.5000 0.5000 (   904 PWs)   bands (ev):

   -23.0168  -6.8244  -6.8244  -6.4563   9.8088  10.7495  10.7495  16.9174
    17.2567  20.5795  21.8347  21.8347  24.7978  27.4512  27.4512  28.7485
    33.2874  33.2903  33.2903  33.8563  33.8563  33.9255  34.4179  35.4521
    38.4550  39.9733

          k = 0.4000 0.5000 0.5000 (   916 PWs)   bands (ev):

   -22.9926  -6.7943  -6.7943  -6.6254   9.9996  10.4369  10.4369  16.4049
    18.5859  20.6170  22.1494  22.1494  24.0353  28.2773  28.2773  28.9425
    32.4451  33.2260  33.2260  33.4868  33.7688  33.7688  34.1421  36.2910
    38.7111  40.4170

          k = 0.4500 0.5000 0.5000 (   912 PWs)   bands (ev):

   -22.9770  -6.7747  -6.7747  -6.7317  10.1343  10.2470  10.2470  16.0768
    19.8767  20.6415  22.3337  22.3337  23.0666  28.8768  28.8768  29.0575
    31.9685  33.1393  33.1393  33.2122  33.8570  33.8570  33.9724  36.6891
    38.9004  39.3812

          k = 0.5000 0.5000 0.5000 (   912 PWs)   bands (ev):

   -22.9716  -6.7680  -6.7680  -6.7680  10.1833  10.1833  10.1833  15.9631
    20.6499  20.6499  22.3945  22.3945  22.3945  29.0958  29.0958  29.0958
    31.8198  33.1166  33.1166  33.1166  33.9151  33.9151  33.9151  36.7875
    38.9716  38.9716

          k = 0.4750 0.4750 0.4750 (   912 PWs)   bands (ev):

   -22.9757  -6.7632  -6.7618  -6.7618  10.1801  10.2141  10.2141  16.0488
    20.3054  20.3054  22.2256  22.7389  22.7389  28.9645  28.9872  28.9872
    31.9267  33.0275  33.0275  33.3459  33.7533  33.9921  33.9921  36.7243
    39.1529  39.1529

          k = 0.4500 0.4500 0.4500 (   913 PWs)   bands (ev):

   -22.9878  -6.7490  -6.7433  -6.7433  10.1741  10.3062  10.3062  16.3010
    19.6208  19.6208  21.7539  23.4175  23.4175  28.6312  28.7068  28.7068
    32.2234  32.6717  32.6717  33.3310  33.9510  34.3229  34.3229  36.5722
    39.6263  39.6263

          k = 0.4250 0.4250 0.4250 (   910 PWs)   bands (ev):

   -23.0077  -6.7250  -6.7125  -6.7125  10.1748  10.4586  10.4586  16.7068
    18.8579  18.8579  21.0603  24.1488  24.1488  28.1970  28.3514  28.3514
    32.1021  32.1021  32.6579  32.7628  34.7366  34.8720  34.8720  36.4554
    40.0606  40.0606

          k = 0.4000 0.4000 0.4000 (   904 PWs)   bands (ev):

   -23.0348  -6.6913  -6.6699  -6.6699  10.1935  10.6699  10.6699  17.2487
    18.0821  18.0821  20.2294  24.8158  24.8158  27.7276  28.0293  28.0293
    31.4416  31.4416  32.1325  33.1811  35.2907  35.5164  35.5164  36.7393
    39.7872  39.7872

          k = 0.3750 0.3750 0.3750 (   904 PWs)   bands (ev):

   -23.0686  -6.6475  -6.6157  -6.6157  10.2391  10.9374  10.9374  17.3151
    17.3151  17.9067  19.3301  25.2826  25.2826  27.2583  27.8711  27.8711
    30.7823  30.7823  31.4870  33.7575  35.3166  36.1372  36.1372  37.6922
    39.5188  39.5189

          k = 0.3500 0.3500 0.3500 (   910 PWs)   bands (ev):

   -23.1080  -6.5934  -6.5505  -6.5505  10.3157  11.2573  11.2573  16.5688
    16.5688  18.3971  18.6771  25.4078  25.4078  26.8117  27.9551  27.9551
    30.2400  30.2400  30.8518  34.3533  35.1865  36.5930  36.5930  38.9233
    39.5538  39.5538

          k = 0.3250 0.3250 0.3250 (   916 PWs)   bands (ev):

   -23.1523  -6.5290  -6.4751  -6.4751  10.4207  11.6229  11.6229  15.8534
    15.8534  17.5119  19.4960  25.2341  25.2341  26.4091  28.0245  28.0245
    30.0615  30.0615  30.2409  34.8023  35.2106  36.7953  36.7953  39.9446
    39.9446  40.2190

          k = 0.3000 0.3000 0.3000 (   895 PWs)   bands (ev):

   -23.2001  -6.4543  -6.3904  -6.3904  10.5412  12.0212  12.0212  15.1838
    15.1838  16.6784  20.3654  24.9181  24.9181  26.0797  27.7451  27.7451
    29.6630  30.4460  30.4460  34.7741  35.7304  36.8186  36.8186  40.4789
    40.4789  41.2894

          k = 0.2750 0.2750 0.2750 (   889 PWs)   bands (ev):

   -23.2505  -6.3698  -6.2979  -6.2979  10.6510  12.4189  12.4189  14.5933
    14.5933  15.9496  21.2214  24.5555  24.5555  25.8744  27.2577  27.2577
    29.1228  31.1687  31.1687  34.6594  36.3050  36.7807  36.7807  40.5560
    40.5560  40.8407

          k = 0.2500 0.2500 0.2500 (   901 PWs)   bands (ev):

   -23.3021  -6.2764  -6.1993  -6.1993  10.7061  12.7072  12.7072  14.1900
    14.1900  15.3817  21.9656  24.1877  24.1877  25.8868  26.7357  26.7357
    28.6239  32.0161  32.0161  34.5139  36.7110  36.7413  36.7413  39.7299
    39.7299  39.7697

          k = 0.2250 0.2250 0.2250 (   898 PWs)   bands (ev):

   -23.3536  -6.1752  -6.0965  -6.0965  10.6520  12.6469  12.6469  14.2106
    14.2106  15.0369  22.4651  23.8331  23.8331  26.2451  26.2470  26.2470
    28.1687  32.8813  32.8813  34.2512  36.6396  36.6998  36.6998  38.6102
    38.6102  39.3088

          k = 0.2000 0.2000 0.2000 (   907 PWs)   bands (ev):

   -23.4038  -6.0685  -5.9920  -5.9920  10.4544  12.2845  12.2845  14.6045
    14.6045  14.9535  22.6688  23.5001  23.5001  25.8222  25.8222  26.9932
    27.7586  33.6202  33.6202  33.6856  36.2309  36.5650  36.5650  37.7375
    37.7375  39.5910

          k = 0.1750 0.1750 0.1750 (   898 PWs)   bands (ev):

   -23.4515  -5.9588  -5.8885  -5.8885  10.1322  11.8505  11.8505  15.1136
    15.1341  15.1341  22.6677  23.1931  23.1931  25.4811  25.4811  27.3949
    28.0295  32.7395  33.8171  33.8171  36.0192  36.4491  36.4492  37.4934
    37.4934  40.1767

          k = 0.1500 0.1500 0.1500 (   898 PWs)   bands (ev):

   -23.4955  -5.8497  -5.7891  -5.7891   9.7421  11.4312  11.4312  15.4578
    15.7022  15.7022  22.5709  22.9145  22.9145  25.2408  25.2408  27.0784
    29.2233  31.5994  33.1446  33.1446  36.0514  36.9286  36.9286  37.6543
    37.6543  40.8389

          k = 0.1250 0.1250 0.1250 (   895 PWs)   bands (ev):

   -23.5346  -5.7454  -5.6971  -5.6971   9.3413  11.0550  11.0550  15.9205
    16.2651  16.2651  22.4424  22.6670  22.6670  25.1172  25.1172  26.8098
    30.2131  30.7080  32.0881  32.0881  36.2453  37.5741  37.5741  38.1764
    38.1764  41.4811

          k = 0.1000 0.1000 0.1000 (   901 PWs)   bands (ev):

   -23.5681  -5.6506  -5.6160  -5.6160   8.9714  10.7346  10.7346  16.4439
    16.7891  16.7891  22.3141  22.4537  22.4537  25.1257  25.1257  26.5893
    29.2524  30.9649  30.9649  31.8238  36.5797  38.0147  38.0147  39.1170
    39.1170  41.9876

          k = 0.0750 0.0750 0.0750 (   898 PWs)   bands (ev):

   -23.5950  -5.5700  -5.5488  -5.5488   8.6605  10.4783  10.4783  16.9712
    17.2417  17.2417  22.2021  22.2792  22.2792  25.2775  25.2775  26.4176
    28.2738  29.8788  29.8788  32.9712  37.0924  38.4397  38.4397  40.1644
    40.1644  42.1178

          k = 0.0500 0.0500 0.0500 (   898 PWs)   bands (ev):

   -23.6146  -5.5085  -5.4984  -5.4984   8.4267  10.2913  10.2913  17.4378
    17.5914  17.5914  22.1152  22.1488  22.1488  25.5704  25.5704  26.2948
    27.4838  28.8869  28.8869  33.8670  37.8550  38.9029  38.9029  40.9719
    40.9719  41.7859

          k = 0.0250 0.0250 0.0250 (   904 PWs)   bands (ev):

   -23.6266  -5.4699  -5.4673  -5.4673   8.2820  10.1775  10.1775  17.7674
    17.8123  17.8123  22.0596  22.0678  22.0678  25.9561  25.9561  26.2211
    26.9617  28.0701  28.0701  34.4024  38.8634  39.3849  39.3849  40.7940
    40.7940  41.1536

          k = 0.0000 0.0000 0.0000 (   895 PWs)   bands (ev):

   -23.6307  -5.4567  -5.4567  -5.4567   8.2331  10.1394  10.1394  17.8879
    17.8879  17.8879  22.0403  22.0403  22.0403  26.1965  26.1965  26.1965
    26.7776  27.6843  27.6843  34.5745  39.6905  39.6905  39.6905  40.4862
    40.4862  40.4862

          k = 0.0500 0.0000 0.0000 (   904 PWs)   bands (ev):

   -23.6253  -5.5111  -5.4522  -5.4522   8.2970  10.1566  10.2244  17.7094
    17.7094  17.8978  21.7799  22.2190  22.2190  25.5301  26.3021  26.3021
    26.9850  27.8421  28.4277  34.3612  38.8255  38.8255  39.9863  40.0192
    41.3623  41.3623

          k = 0.1000 0.0000 0.0000 (   900 PWs)   bands (ev):

   -23.6097  -5.6654  -5.4390  -5.4390   8.4722  10.2075  10.4826  17.2644
    17.2644  17.9267  21.1618  22.6531  22.6531  24.5045  26.6278  26.6278
    27.2769  28.4814  29.6847  33.8359  37.7173  37.7173  38.9120  40.1828
    40.7603  42.4248

          k = 0.1500 0.0000 0.0000 (   896 PWs)   bands (ev):

   -23.5853  -5.8970  -5.4184  -5.4184   8.7200  10.2891  10.9127  16.7037
    16.7037  17.9724  20.4329  23.1685  23.1685  23.5068  27.1884  27.1884
    27.4509  29.5508  31.0694  33.1816  36.6759  36.6759  37.2592  38.7647
    41.8303  43.1424

          k = 0.2000 0.0000 0.0000 (   896 PWs)   bands (ev):

   -23.5543  -6.1751  -5.3922  -5.3922   9.0057  10.3961  11.4836  16.1279
    16.1279  18.0313  19.7537  22.5888  23.6562  23.6562  27.5775  27.9734
    27.9734  30.7943  32.5132  32.5316  35.3392  35.7437  35.7437  37.7580
    43.0823  43.4764

          k = 0.2500 0.0000 0.0000 (   900 PWs)   bands (ev):

   -23.5195  -6.4679  -5.3629  -5.3629   9.3108  10.5209  12.1157  15.5916
    15.5916  18.0983  19.2447  21.7702  24.0815  24.0815  27.6368  28.9212
    28.9212  31.8909  32.0016  33.5056  34.0534  34.9681  34.9681  37.0446
    43.6216  43.6216

          k = 0.3000 0.0000 0.0000 (   884 PWs)   bands (ev):

   -23.4842  -6.7465  -5.3333  -5.3333   9.6263  10.6532  12.6802  15.1255
    15.1255  18.1673  19.0355  21.0666  24.4459  24.4459  27.4954  29.9045
    29.9045  31.3482  31.7947  33.0651  34.4437  34.4437  35.6209  36.8374
    43.6291  43.6291

          k = 0.3500 0.0000 0.0000 (   868 PWs)   bands (ev):

   -23.4521  -6.9875  -5.3064  -5.3064   9.9401  10.7798  13.0406  14.7480
    14.7480  18.2312  19.2517  20.4937  24.7531  24.7531  26.8845  30.6911
    30.6911  30.8129  30.9061  33.3038  34.3700  34.3700  37.2156  37.4931
    43.1929  43.1930

          k = 0.4000 0.0000 0.0000 (   872 PWs)   bands (ev):

   -23.4263  -7.1724  -5.2849  -5.2849  10.2268  10.8860  13.1569  14.4708
    14.4708  18.2831  19.9178  20.0678  24.9955  24.9955  25.7306  30.4664
    30.5796  31.0475  31.0475  33.0791  34.9439  34.9439  38.8083  38.8447
    41.8204  41.8204

          k = 0.4500 0.0000 0.0000 (   876 PWs)   bands (ev):

   -23.4097  -7.2885  -5.2711  -5.2711  10.4405  10.9572  13.1296  14.3017
    14.3017  18.3171  19.8044  20.8793  24.3976  25.1547  25.1547  30.3794
    30.4588  31.0920  31.0920  32.7834  35.9440  35.9440  40.3141  40.3141
    40.3434  40.5127

          k = 0.5000 0.0000 0.0000 (   884 PWs)   bands (ev):

   -23.4039  -7.3281  -5.2663  -5.2663  10.5222  10.9823  13.0993  14.2448
    14.2448  18.3289  19.7152  21.5449  23.6006  25.2107  25.2107  30.3119
    30.4938  31.0773  31.0773  32.6546  36.5880  36.5880  39.5158  39.5158
    41.5206  42.0252

          k = 0.5000 0.0500 0.0000 (   882 PWs)   bands (ev):

   -23.3987  -7.3212  -5.3167  -5.2620  10.5969  11.0579  12.7765  14.2609
    14.4946  18.1896  19.8770  21.5183  23.6205  25.0229  25.4401  29.5490
    30.4552  30.8010  31.8776  33.3329  36.4251  36.5995  39.0858  39.5653
    40.8569  42.0807

          k = 0.5000 0.1000 0.0000 (   892 PWs)   bands (ev):

   -23.3837  -7.3011  -5.4605  -5.2497  10.7504  11.3453  12.1603  14.3080
    14.9100  17.8230  20.3377  21.4280  23.6783  24.5861  26.0767  28.5547
    29.4792  31.6040  32.9774  34.4438  36.0009  36.6332  38.3228  39.2911
    39.7180  42.1457

          k = 0.5000 0.1500 0.0000 (   884 PWs)   bands (ev):

   -23.3600  -7.2695  -5.6769  -5.2303  10.8983  11.4944  11.9006  14.3835
    15.2947  17.3330  21.0271  21.2478  23.7677  24.1175  27.0176  27.6097
    28.5657  32.6963  34.0762  35.3528  35.4438  36.6866  37.4197  37.8431
    39.9853  42.2414

          k = 0.5000 0.2000 0.0000 (   890 PWs)   bands (ev):

   -23.3300  -7.2293  -5.9380  -5.2058  10.8513  11.0479  12.6728  14.4822
    15.6340  16.8081  20.9591  21.8378  23.7611  23.8693  26.7423  27.8316
    28.1745  33.7695  34.9553  35.1116  35.4014  35.5548  36.7554  38.3360
    40.3838  42.3449

          k = 0.5000 0.2500 0.0000 (   884 PWs)   bands (ev):

   -23.2963  -7.1841  -6.2143  -5.1783  10.2666  11.2092  13.5932  14.5969
    15.9407  16.3064  20.5923  22.6300  23.5623  23.9301  25.9687  27.4235
    29.4896  33.0613  34.3403  34.8529  35.7473  36.0258  36.8340  39.5274
    40.9226  42.3539

          k = 0.5000 0.3000 0.0000 (   892 PWs)   bands (ev):

   -23.2622  -7.1381  -6.4786  -5.1507   9.7628  11.3774  14.5859  14.7177
    15.8634  16.2223  20.2325  23.2604  23.4977  23.8552  25.3037  27.5319
    30.9272  31.2456  33.7516  34.2254  36.7732  36.9147  37.2282  40.8303
    41.5727  41.8031

          k = 0.5000 0.3500 0.0000 (   894 PWs)   bands (ev):

   -23.2312  -7.0960  -6.7077  -5.1255   9.3557  11.5397  14.8327  15.5012
    15.5428  16.4745  19.9925  23.5339  23.6004  23.6975  24.7626  28.1804
    29.4234  32.4631  33.3040  33.6605  36.9898  37.3380  38.8287  40.4097
    41.9100  42.2372

          k = 0.5000 0.4000 0.0000 (   894 PWs)   bands (ev):

   -23.2063  -7.0621  -6.8841  -5.1055   9.0568  11.6778  14.9287  15.2339
    16.3066  16.6819  19.9817  23.3278  23.6637  23.9391  24.3610  27.7513
    29.1300  32.9735  33.1983  34.0769  37.0513  37.7293  38.8949  40.4629
    41.0881  42.5337

          k = 0.5000 0.4500 0.0000 (   880 PWs)   bands (ev):

   -23.1902  -7.0402  -6.9948  -5.0925   8.8743  11.7718  14.9927  15.0703
    16.7431  16.8213  20.1857  23.1110  23.9093  24.0792  24.1131  26.3824
    30.0460  32.7697  32.8543  35.7366  37.0933  37.7109  37.9601  39.3869
    42.0103  42.8129

          k = 0.5000 0.5000 0.0000 (   888 PWs)   bands (ev):

   -23.1846  -7.0326  -7.0326  -5.0880   8.8129  11.8053  15.0152  15.0152
    16.8708  16.8708  20.3250  23.0311  24.0291  24.1248  24.1248  25.7371
    30.4674  32.7007  32.7007  36.9900  37.1804  37.2406  38.0366  38.0366
    42.8939  42.8939

          k = 0.4750 0.4750 0.0000 (   884 PWs)   bands (ev):

   -23.1874  -7.0256  -7.0244  -5.0902   8.8436  11.7883  15.0192  15.0274
    16.8277  16.8280  20.2480  23.0691  23.8461  24.0712  24.2783  26.0611
    30.2620  32.5085  32.9968  36.4093  36.7127  37.4783  38.5073  38.5803
    42.5537  42.6630

          k = 0.4500 0.4500 0.0000 (   890 PWs)   bands (ev):

   -23.1958  -7.0049  -6.9999  -5.0970   8.9349  11.7382  15.0316  15.0642
    16.6936  16.7007  20.0655  23.0839  23.4185  24.1965  24.6942  26.7127
    29.8484  32.0249  33.6909  35.4876  35.9830  38.0962  39.2442  39.3717
    41.8401  42.0648

          k = 0.4250 0.4250 0.0000 (   890 PWs)   bands (ev):

   -23.2094  -6.9703  -6.9595  -5.1080   9.0844  11.6573  15.0540  15.1251
    16.4601  16.4926  19.8695  22.6563  23.4926  24.4023  25.2868  27.4145
    29.4731  31.4030  34.5244  34.5761  35.2279  38.9305  40.0044  40.0443
    41.0212  41.2584

          k = 0.4000 0.4000 0.0000 (   902 PWs)   bands (ev):

   -23.2280  -6.9220  -6.9038  -5.1230   9.2874  11.5500  15.0886  15.2097
    16.1259  16.2095  19.7267  22.1724  23.7241  24.6843  25.9846  27.9733
    29.3545  30.7443  33.5587  34.4726  35.5718  39.7173  40.3314  40.3535
    40.4435  40.7480

          k = 0.3750 0.3750 0.0000 (   894 PWs)   bands (ev):

   -23.2511  -6.8601  -6.8335  -5.1417   9.5354  11.4229  15.1384  15.3175
    15.7044  15.8608  19.6633  21.7702  23.9612  25.0360  26.7311  28.1728
    29.7380  30.1128  32.6063  33.7249  36.6389  39.1497  39.4192  40.5061
    41.0360  41.4389

          k = 0.3500 0.3500 0.0000 (   892 PWs)   bands (ev):

   -23.2781  -6.7852  -6.7499  -5.1636   9.8124  11.2878  15.2060  15.2200
    15.4476  15.4626  19.6780  21.4691  24.1460  25.4478  27.4440  28.2306
    29.5900  30.4350  31.6792  32.9878  37.6813  38.2762  38.5711  40.3358
    42.0110  42.0200

          k = 0.3250 0.3250 0.0000 (   886 PWs)   bands (ev):

   -23.3082  -6.6979  -6.6543  -5.1882  10.0842  11.1696  14.6981  15.0407
    15.2945  15.5988  19.7589  21.2706  24.2382  25.9039  27.8688  28.3994
    29.4263  30.7935  31.2034  32.2639  37.3988  37.4490  39.0696  40.0585
    42.0247  42.3586

          k = 0.3000 0.3000 0.0000 (   886 PWs)   bands (ev):

   -23.3408  -6.5991  -6.5485  -5.2149  10.2721  11.1267  14.1602  14.6340
    15.4061  15.7697  19.8932  21.1663  24.2325  26.3707  27.7144  28.7373
    29.9019  29.9816  31.5561  31.9417  36.5476  36.6571  39.7443  40.1217
    41.0330  42.4018

          k = 0.2750 0.2750 0.0000 (   884 PWs)   bands (ev):

   -23.3750  -6.4901  -6.4344  -5.2430  10.2826  11.2133  13.6226  14.3010
    15.5428  15.9583  20.0699  21.1429  24.1570  26.7589  27.3144  29.2193
    29.3311  30.6591  30.8675  32.5448  35.7559  36.0164  39.4276  39.5902
    41.5775  42.1987

          k = 0.2500 0.2500 0.0000 (   892 PWs)   bands (ev):

   -23.4100  -6.3729  -6.3143  -5.2719  10.1507  11.3289  13.0977  14.1243
    15.7058  16.1624  20.2797  21.1846  24.0526  26.8429  26.8926  29.0653
    29.7807  30.2014  31.4058  32.8410  35.0984  35.7128  38.4423  39.1263
    41.8736  42.6022

          k = 0.2250 0.2250 0.0000 (   885 PWs)   bands (ev):

   -23.4448  -6.2495  -6.1909  -5.3008   9.9526  11.3332  12.5954  14.1807
    15.8955  16.3788  20.5140  21.2736  23.9573  26.4708  26.5057  29.3335
    29.5624  30.2996  31.8947  32.7965  34.7733  35.6962  37.4802  38.8521
    41.5115  42.3021

          k = 0.2000 0.2000 0.0000 (   885 PWs)   bands (ev):

   -23.4786  -6.1230  -6.0671  -5.3289   9.7211  11.2016  12.1235  14.4710
    16.1114  16.6038  20.7642  21.3908  23.9033  25.8595  26.1743  28.9554
    29.9145  30.5131  31.8438  32.8268  35.0488  35.1775  37.3632  38.6135
    41.1548  41.9985

          k = 0.1750 0.1750 0.0000 (   889 PWs)   bands (ev):

   -23.5107  -5.9966  -5.9462  -5.3557   9.4697  10.9958  11.6890  14.9239
    16.3516  16.8326  21.0200  21.5158  23.9189  25.1872  25.9109  28.3863
    30.2277  30.6249  31.3705  33.3014  34.1172  35.8033  37.9613  38.4193
    40.8239  41.7264

          k = 0.1500 0.1500 0.0000 (   895 PWs)   bands (ev):

   -23.5403  -5.8741  -5.8314  -5.3805   9.2093  10.7780  11.2981  15.4652
    16.6124  17.0590  21.2697  21.6311  24.0267  24.5198  25.7263  27.8622
    29.6559  30.7422  31.3910  32.9469  34.0996  36.7670  38.2802  38.7541
    40.5290  41.4950

          k = 0.1250 0.1250 0.0000 (   891 PWs)   bands (ev):

   -23.5665  -5.7599  -5.7264  -5.4025   8.9530  10.5816  10.9564  16.0405
    16.8876  17.2758  21.4999  21.7279  23.8860  24.2391  25.6305  27.3917
    28.9981  30.0788  31.8038  32.1707  35.0303  37.8142  38.2124  39.5939
    40.2754  41.3148

          k = 0.1000 0.1000 0.0000 (   893 PWs)   bands (ev):

   -23.5889  -5.6582  -5.6345  -5.4214   8.7165  10.4198  10.6690  16.6050
    17.1673  17.4743  21.6972  21.8094  23.3061  24.5552  25.6310  26.9845
    28.3417  29.4275  30.7129  32.9229  36.0352  38.2406  38.8774  40.0659
    40.4051  41.2121

          k = 0.0750 0.0750 0.0000 (   899 PWs)   bands (ev):

   -23.6068  -5.5736  -5.5591  -5.4366   8.5150  10.2955  10.4403  17.1155
    17.4351  17.6444  21.8514  21.8845  22.8013  24.9626  25.7270  26.6510
    27.7383  28.8158  29.6992  33.5958  37.0764  38.4012  39.8319  39.9020
    41.0264  41.2935

          k = 0.0500 0.0500 0.0000 (   899 PWs)   bands (ev):

   -23.6200  -5.5098  -5.5030  -5.4477   8.3616  10.2082  10.2741  17.5265
    17.6667  17.7759  21.9570  21.9586  22.3989  25.4390  25.9004  26.4024
    27.2382  28.2734  28.7889  34.1268  38.1181  38.7345  39.7846  40.3503
    41.1426  41.8754

          k = 0.0250 0.0250 0.0000 (   903 PWs)   bands (ev):

   -23.6280  -5.4702  -5.4684  -5.4544   8.2657  10.1565  10.1732  17.7946
    17.8288  17.8593  22.0164  22.0203  22.1338  25.9269  26.0974  26.2486
    26.8993  27.8563  28.0403  34.4614  39.0939  39.2479  39.7140  40.4691
    40.8453  41.0660

          k = 0.0000 0.0000 0.0000 (   895 PWs)   bands (ev):

   -23.6307  -5.4567  -5.4567  -5.4567   8.2331  10.1394  10.1394  17.8879
    17.8879  17.8879  22.0403  22.0403  22.0403  26.1965  26.1965  26.1965
    26.7776  27.6843  27.6843  34.5745  39.6905  39.6905  39.6905  40.4862
    40.4862  40.4862

          k = 0.0250 0.0250 0.0250 (   904 PWs)   bands (ev):

   -23.6266  -5.4699  -5.4673  -5.4673   8.2820  10.1775  10.1775  17.7674
    17.8123  17.8123  22.0596  22.0678  22.0678  25.9561  25.9561  26.2211
    26.9617  28.0701  28.0701  34.4024  38.8634  39.3849  39.3849  40.7940
    40.7940  41.1536

          k = 0.0500 0.0500 0.0500 (   898 PWs)   bands (ev):

   -23.6146  -5.5085  -5.4984  -5.4984   8.4267  10.2913  10.2913  17.4378
    17.5914  17.5914  22.1152  22.1488  22.1488  25.5704  25.5704  26.2948
    27.4838  28.8869  28.8869  33.8670  37.8550  38.9029  38.9029  40.9719
    40.9719  41.7859

          k = 0.0750 0.0750 0.0750 (   898 PWs)   bands (ev):

   -23.5950  -5.5700  -5.5488  -5.5488   8.6605  10.4783  10.4783  16.9712
    17.2417  17.2417  22.2021  22.2792  22.2792  25.2775  25.2775  26.4176
    28.2738  29.8788  29.8788  32.9712  37.0924  38.4397  38.4397  40.1644
    40.1644  42.1178

          k = 0.1000 0.1000 0.1000 (   901 PWs)   bands (ev):

   -23.5681  -5.6506  -5.6160  -5.6160   8.9714  10.7346  10.7346  16.4439
    16.7891  16.7891  22.3141  22.4537  22.4537  25.1257  25.1257  26.5893
    29.2524  30.9649  30.9649  31.8238  36.5797  38.0147  38.0147  39.1170
    39.1170  41.9876

          k = 0.1250 0.1250 0.1250 (   895 PWs)   bands (ev):

   -23.5346  -5.7454  -5.6971  -5.6971   9.3413  11.0550  11.0550  15.9205
    16.2651  16.2651  22.4424  22.6670  22.6670  25.1172  25.1172  26.8098
    30.2131  30.7080  32.0881  32.0881  36.2453  37.5741  37.5742  38.1764
    38.1764  41.4811

          k = 0.1500 0.1500 0.1500 (   898 PWs)   bands (ev):

   -23.4955  -5.8497  -5.7891  -5.7891   9.7421  11.4312  11.4312  15.4578
    15.7022  15.7022  22.5709  22.9145  22.9145  25.2408  25.2408  27.0784
    29.2233  31.5994  33.1446  33.1446  36.0514  36.9286  36.9286  37.6543
    37.6543  40.8389

          k = 0.1750 0.1750 0.1750 (   898 PWs)   bands (ev):

   -23.4515  -5.9588  -5.8885  -5.8885  10.1322  11.8505  11.8505  15.1136
    15.1341  15.1341  22.6677  23.1931  23.1931  25.4811  25.4811  27.3949
    28.0295  32.7395  33.8171  33.8171  36.0192  36.4491  36.4491  37.4934
    37.4934  40.1767

          k = 0.2000 0.2000 0.2000 (   907 PWs)   bands (ev):

   -23.4038  -6.0685  -5.9920  -5.9920  10.4544  12.2845  12.2845  14.6045
    14.6045  14.9535  22.6688  23.5001  23.5001  25.8222  25.8222  26.9932
    27.7586  33.6202  33.6202  33.6856  36.2309  36.5650  36.5650  37.7375
    37.7375  39.5910

          k = 0.2250 0.2250 0.2250 (   898 PWs)   bands (ev):

   -23.3536  -6.1752  -6.0965  -6.0965  10.6520  12.6469  12.6469  14.2106
    14.2106  15.0369  22.4651  23.8331  23.8331  26.2451  26.2470  26.2470
    28.1687  32.8813  32.8813  34.2512  36.6396  36.6998  36.6998  38.6102
    38.6102  39.3088

          k = 0.2500 0.2500 0.2500 (   901 PWs)   bands (ev):

   -23.3021  -6.2764  -6.1993  -6.1993  10.7061  12.7072  12.7072  14.1900
    14.1900  15.3817  21.9656  24.1877  24.1877  25.8868  26.7357  26.7357
    28.6239  32.0161  32.0161  34.5139  36.7110  36.7413  36.7413  39.7299
    39.7299  39.7697

          k = 0.2750 0.2750 0.2750 (   889 PWs)   bands (ev):

   -23.2505  -6.3698  -6.2979  -6.2979  10.6510  12.4189  12.4189  14.5933
    14.5933  15.9496  21.2214  24.5555  24.5555  25.8744  27.2577  27.2577
    29.1228  31.1687  31.1687  34.6594  36.3050  36.7807  36.7807  40.5560
    40.5560  40.8407

          k = 0.3000 0.3000 0.3000 (   895 PWs)   bands (ev):

   -23.2001  -6.4543  -6.3904  -6.3904  10.5412  12.0212  12.0212  15.1838
    15.1838  16.6784  20.3654  24.9181  24.9181  26.0797  27.7451  27.7451
    29.6630  30.4460  30.4460  34.7741  35.7304  36.8186  36.8186  40.4789
    40.4789  41.2894

          k = 0.3250 0.3250 0.3250 (   916 PWs)   bands (ev):

   -23.1523  -6.5290  -6.4751  -6.4751  10.4207  11.6229  11.6229  15.8534
    15.8534  17.5119  19.4960  25.2341  25.2341  26.4091  28.0245  28.0245
    30.0615  30.0615  30.2409  34.8023  35.2106  36.7953  36.7953  39.9446
    39.9446  40.2190

          k = 0.3500 0.3500 0.3500 (   910 PWs)   bands (ev):

   -23.1080  -6.5934  -6.5505  -6.5505  10.3157  11.2573  11.2573  16.5688
    16.5688  18.3971  18.6771  25.4078  25.4078  26.8117  27.9551  27.9551
    30.2400  30.2400  30.8518  34.3533  35.1865  36.5930  36.5930  38.9233
    39.5538  39.5538

          k = 0.3750 0.3750 0.3750 (   904 PWs)   bands (ev):

   -23.0686  -6.6475  -6.6157  -6.6157  10.2391  10.9374  10.9374  17.3151
    17.3151  17.9067  19.3301  25.2826  25.2826  27.2583  27.8711  27.8711
    30.7823  30.7823  31.4870  33.7575  35.3166  36.1372  36.1372  37.6922
    39.5188  39.5188

          k = 0.4000 0.4000 0.4000 (   904 PWs)   bands (ev):

   -23.0348  -6.6913  -6.6699  -6.6699  10.1935  10.6699  10.6699  17.2487
    18.0821  18.0821  20.2294  24.8158  24.8158  27.7276  28.0293  28.0293
    31.4416  31.4416  32.1325  33.1811  35.2907  35.5164  35.5164  36.7393
    39.7872  39.7872

          k = 0.4250 0.4250 0.4250 (   910 PWs)   bands (ev):

   -23.0077  -6.7250  -6.7125  -6.7125  10.1748  10.4586  10.4586  16.7068
    18.8579  18.8579  21.0603  24.1488  24.1488  28.1970  28.3514  28.3514
    32.1021  32.1021  32.6579  32.7628  34.7366  34.8720  34.8720  36.4554
    40.0606  40.0606

          k = 0.4500 0.4500 0.4500 (   913 PWs)   bands (ev):

   -22.9878  -6.7490  -6.7433  -6.7433  10.1741  10.3062  10.3062  16.3010
    19.6208  19.6208  21.7539  23.4175  23.4175  28.6312  28.7068  28.7068
    32.2234  32.6717  32.6717  33.3310  33.9510  34.3229  34.3229  36.5722
    39.6263  39.6263

          k = 0.4750 0.4750 0.4750 (   912 PWs)   bands (ev):

   -22.9757  -6.7632  -6.7618  -6.7618  10.1801  10.2141  10.2141  16.0488
    20.3054  20.3054  22.2256  22.7389  22.7389  28.9645  28.9872  28.9872
    31.9267  33.0275  33.0275  33.3459  33.7533  33.9921  33.9921  36.7243
    39.1529  39.1529

          k = 0.5000 0.5000 0.5000 (   912 PWs)   bands (ev):

   -22.9716  -6.7680  -6.7680  -6.7680  10.1833  10.1833  10.1833  15.9631
    20.6499  20.6499  22.3945  22.3945  22.3945  29.0958  29.0958  29.0958
    31.8198  33.1166  33.1166  33.1166  33.9151  33.9151  33.9151  36.7875
    38.9716  38.9716

     Writing all to output data dir ./work/POSCAR.save/

     init_run     :      0.25s CPU      0.27s WALL (       1 calls)
     electrons    :      2.51s CPU      2.82s WALL (       1 calls)

     Called by init_run:
     wfcinit      :      0.00s CPU      0.01s WALL (       1 calls)
     potinit      :      0.16s CPU      0.17s WALL (       1 calls)
     hinit0       :      0.08s CPU      0.08s WALL (       1 calls)

     Called by electrons:
     c_bands      :      2.50s CPU      2.82s WALL (       1 calls)
     v_of_rho     :      0.00s CPU      0.00s WALL (       1 calls)
     newd         :      0.00s CPU      0.00s WALL (       1 calls)
     PAW_pot      :      0.03s CPU      0.04s WALL (       1 calls)

     Called by c_bands:
     init_us_2    :      0.00s CPU      0.00s WALL (      91 calls)
     init_us_2:cp :      0.00s CPU      0.00s WALL (      91 calls)
     cegterg      :      2.32s CPU      2.43s WALL (     117 calls)

     Called by *egterg:
     cdiaghg      :      0.86s CPU      0.89s WALL (    1725 calls)
     h_psi        :      1.22s CPU      1.29s WALL (    1842 calls)
     s_psi        :      0.02s CPU      0.02s WALL (    1842 calls)
     g_psi        :      0.01s CPU      0.01s WALL (    1634 calls)

     Called by h_psi:
     h_psi:calbec :      0.06s CPU      0.06s WALL (    1842 calls)
     vloc_psi     :      1.14s CPU      1.21s WALL (    1842 calls)
     add_vuspsi   :      0.02s CPU      0.02s WALL (    1842 calls)

     General routines
     calbec       :      0.06s CPU      0.06s WALL (    1842 calls)
     fft          :      0.05s CPU      0.05s WALL (      13 calls)
     ffts         :      0.13s CPU      0.13s WALL (       1 calls)
     fftw         :      1.05s CPU      1.11s WALL (   51432 calls)
     interpolate  :      0.13s CPU      0.13s WALL (       1 calls)
     davcio       :      0.00s CPU      0.16s WALL (     182 calls)

     Parallel routines

     PWSCF        :      3.08s CPU      4.16s WALL


   This run was terminated on:  22:39:45  15May2024            

=------------------------------------------------------------------------------=
   JOB DONE.
=------------------------------------------------------------------------------=
