
     Program PWSCF v.7.1 starts on 15May2024 at 22:39:36 

     This program is part of the open-source Quantum ESPRESSO suite
     for quantum simulation of materials; please cite
         "P. Giannozzi et al., J. Phys.:Condens. Matter 21 395502 (2009);
         "P. Giannozzi et al., J. Phys.:Condens. Matter 29 465901 (2017);
         "P. Giannozzi et al., J. Chem. Phys. 152 154105 (2020);
          URL http://www.quantum-espresso.org", 
     in publications or presentations arising from this work. More details at
     http://www.quantum-espresso.org/quote

     Parallel version (MPI & OpenMP), running on      10 processor cores
     Number of MPI processes:                10
     Threads/MPI process:                     1

     MPI processes distributed on     1 nodes
     14559 MiB available memory on the printing compute node when the environment starts

     Waiting for input...
     Reading input from standard input

     Current dimensions of program PWSCF are:
     Max number of different atomic species (ntypx) = 10
     Max number of k-points (npk) =  40000
     Max angular momentum in pseudopotentials (lmaxx) =  4
     file Ce.pbe-spdn-kjpaw_psl.1.0.0.UPF: wavefunction(s)  5D renormalized
     Message from routine setup:
     using ibrav=0 with symmetry is DISCOURAGED, use correct ibrav instead

     R & G space division:  proc/nbgrp/npool/nimage =      10
     Subspace diagonalization in iterative solution of the eigenvalue problem:
     a serial algorithm will be used


     Parallelization info
     --------------------
     sticks:   dense  smooth     PW     G-vecs:    dense   smooth      PW
     Min          54      43     14                  944      709     134
     Max          55      44     15                  947      714     137
     Sum         545     437    145                 9459     7123    1357

     Using Slab Decomposition



     bravais-lattice index     =            0
     lattice parameter (alat)  =       6.1742  a.u.
     unit-cell volume          =     235.3703 (a.u.)^3
     number of atoms/cell      =            1
     number of atomic types    =            1
     number of electrons       =        11.00
     number of Kohn-Sham states=           26
     kinetic-energy cutoff     =      37.0000  Ry
     charge density cutoff     =     179.0000  Ry
     scf convergence threshold =      7.3E-05
     mixing beta               =       0.7000
     number of iterations used =            8  plain     mixing
     Exchange-correlation= SLA  PW   PBX  PBC
                           (   1   4   3   4   0   0   0)

     celldm(1)=   6.174245  celldm(2)=   0.000000  celldm(3)=   0.000000
     celldm(4)=   0.000000  celldm(5)=   0.000000  celldm(6)=   0.000000

     crystal axes: (cart. coord. in units of alat)
               a(1) = (   1.000000   0.000000   0.000000 )  
               a(2) = (   0.000000   1.000000   0.000000 )  
               a(3) = (   0.000000   0.000000   1.000000 )  

     reciprocal axes: (cart. coord. in units 2 pi/alat)
               b(1) = (  1.000000  0.000000  0.000000 )  
               b(2) = (  0.000000  1.000000  0.000000 )  
               b(3) = (  0.000000  0.000000  1.000000 )  


     PseudoPot. # 1 for Ce read from file:
     ./../../../../pseudo/psl100_PBE/Ce.pbe-spdn-kjpaw_psl.1.0.0.UPF
     MD5 check sum: 1a25380276e46fcecd5a173acdad072c
     Pseudo is Projector augmented-wave + core cor, Zval = 11.0
     Generated using 'atomic' code by A. Dal Corso  v.7.2
     Shape of augmentation charge: PSQ
     Using radial grid of 1255 points,  6 beta functions with: 
                l(1) =   0
                l(2) =   0
                l(3) =   1
                l(4) =   1
                l(5) =   2
                l(6) =   2
     Q(r) pseudized with 0 coefficients 


     atomic species   valence    mass     pseudopotential
        Ce            11.00   140.11600     Ce( 1.00)

     48 Sym. Ops., with inversion, found



   Cartesian axes

     site n.     atom                  positions (alat units)
         1           Ce  tau(   1) = (   0.0000000   0.0000000   0.0000000  )

     number of k points=    56  Methfessel-Paxton smearing, width (Ry)=  0.0200
                       cart. coord. in units 2pi/alat
        k(    1) = (   0.0000000   0.0000000   0.0000000), wk =   0.0020000
        k(    2) = (   0.0000000   0.0000000   0.1000000), wk =   0.0120000
        k(    3) = (   0.0000000   0.0000000   0.2000000), wk =   0.0120000
        k(    4) = (   0.0000000   0.0000000   0.3000000), wk =   0.0120000
        k(    5) = (   0.0000000   0.0000000   0.4000000), wk =   0.0120000
        k(    6) = (   0.0000000   0.0000000  -0.5000000), wk =   0.0060000
        k(    7) = (   0.0000000   0.1000000   0.1000000), wk =   0.0240000
        k(    8) = (   0.0000000   0.1000000   0.2000000), wk =   0.0480000
        k(    9) = (   0.0000000   0.1000000   0.3000000), wk =   0.0480000
        k(   10) = (   0.0000000   0.1000000   0.4000000), wk =   0.0480000
        k(   11) = (   0.0000000   0.1000000  -0.5000000), wk =   0.0240000
        k(   12) = (   0.0000000   0.2000000   0.2000000), wk =   0.0240000
        k(   13) = (   0.0000000   0.2000000   0.3000000), wk =   0.0480000
        k(   14) = (   0.0000000   0.2000000   0.4000000), wk =   0.0480000
        k(   15) = (   0.0000000   0.2000000  -0.5000000), wk =   0.0240000
        k(   16) = (   0.0000000   0.3000000   0.3000000), wk =   0.0240000
        k(   17) = (   0.0000000   0.3000000   0.4000000), wk =   0.0480000
        k(   18) = (   0.0000000   0.3000000  -0.5000000), wk =   0.0240000
        k(   19) = (   0.0000000   0.4000000   0.4000000), wk =   0.0240000
        k(   20) = (   0.0000000   0.4000000  -0.5000000), wk =   0.0240000
        k(   21) = (   0.0000000  -0.5000000  -0.5000000), wk =   0.0060000
        k(   22) = (   0.1000000   0.1000000   0.1000000), wk =   0.0160000
        k(   23) = (   0.1000000   0.1000000   0.2000000), wk =   0.0480000
        k(   24) = (   0.1000000   0.1000000   0.3000000), wk =   0.0480000
        k(   25) = (   0.1000000   0.1000000   0.4000000), wk =   0.0480000
        k(   26) = (   0.1000000   0.1000000  -0.5000000), wk =   0.0240000
        k(   27) = (   0.1000000   0.2000000   0.2000000), wk =   0.0480000
        k(   28) = (   0.1000000   0.2000000   0.3000000), wk =   0.0960000
        k(   29) = (   0.1000000   0.2000000   0.4000000), wk =   0.0960000
        k(   30) = (   0.1000000   0.2000000  -0.5000000), wk =   0.0480000
        k(   31) = (   0.1000000   0.3000000   0.3000000), wk =   0.0480000
        k(   32) = (   0.1000000   0.3000000   0.4000000), wk =   0.0960000
        k(   33) = (   0.1000000   0.3000000  -0.5000000), wk =   0.0480000
        k(   34) = (   0.1000000   0.4000000   0.4000000), wk =   0.0480000
        k(   35) = (   0.1000000   0.4000000  -0.5000000), wk =   0.0480000
        k(   36) = (   0.1000000  -0.5000000  -0.5000000), wk =   0.0120000
        k(   37) = (   0.2000000   0.2000000   0.2000000), wk =   0.0160000
        k(   38) = (   0.2000000   0.2000000   0.3000000), wk =   0.0480000
        k(   39) = (   0.2000000   0.2000000   0.4000000), wk =   0.0480000
        k(   40) = (   0.2000000   0.2000000  -0.5000000), wk =   0.0240000
        k(   41) = (   0.2000000   0.3000000   0.3000000), wk =   0.0480000
        k(   42) = (   0.2000000   0.3000000   0.4000000), wk =   0.0960000
        k(   43) = (   0.2000000   0.3000000  -0.5000000), wk =   0.0480000
        k(   44) = (   0.2000000   0.4000000   0.4000000), wk =   0.0480000
        k(   45) = (   0.2000000   0.4000000  -0.5000000), wk =   0.0480000
        k(   46) = (   0.2000000  -0.5000000  -0.5000000), wk =   0.0120000
        k(   47) = (   0.3000000   0.3000000   0.3000000), wk =   0.0160000
        k(   48) = (   0.3000000   0.3000000   0.4000000), wk =   0.0480000
        k(   49) = (   0.3000000   0.3000000  -0.5000000), wk =   0.0240000
        k(   50) = (   0.3000000   0.4000000   0.4000000), wk =   0.0480000
        k(   51) = (   0.3000000   0.4000000  -0.5000000), wk =   0.0480000
        k(   52) = (   0.3000000  -0.5000000  -0.5000000), wk =   0.0120000
        k(   53) = (   0.4000000   0.4000000   0.4000000), wk =   0.0160000
        k(   54) = (   0.4000000   0.4000000  -0.5000000), wk =   0.0240000
        k(   55) = (   0.4000000  -0.5000000  -0.5000000), wk =   0.0120000
        k(   56) = (  -0.5000000  -0.5000000  -0.5000000), wk =   0.0020000

     Dense  grid:     9459 G-vectors     FFT dimensions: (  27,  27,  27)

     Smooth grid:     7123 G-vectors     FFT dimensions: (  24,  24,  24)

     Estimated max dynamical RAM per process >       6.35 MB

     Estimated total dynamical RAM >      63.52 MB

     Initial potential from superposition of free atoms

     starting charge      10.9735, renormalised to      11.0000
     Starting wfcs are   13 randomized atomic wfcs +   13 random wfcs
     Checking if some PAW data can be deallocated... 

     total cpu time spent up to now is        0.6 secs

     per-process dynamical memory:    13.2 Mb

     Self-consistent Calculation

     iteration #  1     ecut=    37.00 Ry     beta= 0.70
     Davidson diagonalization with overlap
     ethr =  1.00E-02,  avg # of iterations =  7.0

     Threshold (ethr) on eigenvalues was too large:
     Diagonalizing with lowered threshold

     Davidson diagonalization with overlap
     ethr =  5.91E-05,  avg # of iterations =  3.3

     total cpu time spent up to now is        1.8 secs

     total energy              =    -471.69606967 Ry
     estimated scf accuracy    <       0.00670145 Ry

     iteration #  2     ecut=    37.00 Ry     beta= 0.70
     Davidson diagonalization with overlap
     ethr =  6.09E-05,  avg # of iterations =  1.8

     total cpu time spent up to now is        2.2 secs

     total energy              =    -471.69769548 Ry
     estimated scf accuracy    <       0.00040947 Ry

     iteration #  3     ecut=    37.00 Ry     beta= 0.70
     Davidson diagonalization with overlap
     ethr =  3.72E-06,  avg # of iterations =  2.9

     total cpu time spent up to now is        2.6 secs

     End of self-consistent calculation

          k = 0.0000 0.0000 0.0000 (   895 PWs)   bands (ev):

   -23.6273  -5.4547  -5.4547  -5.4547   8.2321  10.1381  10.1381  17.8886
    17.8886  17.8886  22.0379  22.0379  22.0379  26.1936  26.1936  26.1936
    26.7818  27.6841  27.6841  34.5736  39.6876  39.6876  39.6876  40.4883
    40.4884  40.4884

          k = 0.0000 0.0000 0.1000 (   900 PWs)   bands (ev):

   -23.6064  -5.6635  -5.4370  -5.4370   8.4712  10.2063  10.4814  17.2646
    17.2646  17.9274  21.1602  22.6510  22.6510  24.5025  26.6252  26.6252
    27.2796  28.4819  29.6837  33.8346  37.7164  37.7164  38.9136  40.1827
    40.7581  42.4257

          k = 0.0000 0.0000 0.2000 (   896 PWs)   bands (ev):

   -23.5509  -6.1734  -5.3901  -5.3901   9.0047  10.3949  11.4828  16.1276
    16.1276  18.0321  19.7527  22.5868  23.6540  23.6540  27.5791  27.9715
    27.9715  30.7952  32.5115  32.5305  35.3387  35.7429  35.7429  37.7599
    43.0838  43.4778

          k = 0.0000 0.0000 0.3000 (   884 PWs)   bands (ev):

   -23.4808  -6.7451  -5.3313  -5.3313   9.6251  10.6520  12.6800  15.1249
    15.1249  18.1681  19.0347  21.0646  24.4432  24.4432  27.4965  29.9040
    29.9040  31.3461  31.7946  33.0660  34.4426  34.4426  35.6200  36.8390
    43.6301  43.6301

          k = 0.0000 0.0000 0.4000 (   872 PWs)   bands (ev):

   -23.4229  -7.1711  -5.2828  -5.2828  10.2252  10.8849  13.1574  14.4701
    14.4701  18.2841  19.9172  20.0657  24.9924  24.9924  25.7304  30.4663
    30.5774  31.0486  31.0486  33.0818  34.9422  34.9422  38.8075  38.8454
    41.8186  41.8189

          k = 0.0000 0.0000-0.5000 (   884 PWs)   bands (ev):

   -23.4005  -7.3268  -5.2642  -5.2642  10.5203  10.9812  13.1001  14.2440
    14.2440  18.3299  19.7132  21.5451  23.5993  25.2074  25.2074  30.3096
    30.4934  31.0788  31.0788  32.6580  36.5874  36.5874  39.5126  39.5126
    41.5181  42.0269

          k = 0.0000 0.1000 0.1000 (   893 PWs)   bands (ev):

   -23.5855  -5.6563  -5.6326  -5.4193   8.7156  10.4186  10.6679  16.6049
    17.1674  17.4747  21.6951  21.8087  23.3043  24.5536  25.6286  26.9819
    28.3445  29.4266  30.7120  32.9214  36.0353  38.2408  38.8773  40.0631
    40.4051  41.2133

          k = 0.0000 0.1000 0.2000 (   890 PWs)   bands (ev):

   -23.5301  -6.1520  -5.5935  -5.3727   9.2461  10.6624  11.5819  15.4750
    16.1656  17.4857  20.2927  22.6423  23.1003  24.4160  26.8385  28.1710
    29.0157  31.3839  31.4514  33.2313  34.1951  35.4541  37.0266  39.5901
    40.1314  41.9092

          k = 0.0000 0.1000 0.3000 (   889 PWs)   bands (ev):

   -23.4603  -6.7207  -5.5305  -5.3142   9.8484  10.9290  12.5645  14.7951
    15.1807  17.6360  19.4073  21.6589  23.3626  25.2598  28.5478  28.9782
    29.4824  30.8760  31.7913  32.9538  34.4299  35.7249  36.0276  38.3955
    40.3749  43.6265

          k = 0.0000 0.1000 0.4000 (   883 PWs)   bands (ev):

   -23.4025  -7.1448  -5.4785  -5.2661  10.4416  11.1900  12.4713  14.5318
    14.8900  17.7700  19.9788  20.7404  23.8575  25.8352  26.2804  28.8898
    29.6775  31.3648  32.5145  33.5690  35.2986  35.4846  38.3099  39.5443
    40.9925  41.4330

          k = 0.0000 0.1000-0.5000 (   892 PWs)   bands (ev):

   -23.3802  -7.2998  -5.4585  -5.2476  10.7487  11.3442  12.1604  14.3073
    14.9097  17.8236  20.3359  21.4282  23.6772  24.5832  26.0738  28.5536
    29.4811  31.6032  32.9776  34.4466  36.0001  36.6325  38.3207  39.2903
    39.7149  42.1475

          k = 0.0000 0.2000 0.2000 (   885 PWs)   bands (ev):

   -23.4752  -6.1213  -6.0654  -5.3269   9.7202  11.2008  12.1226  14.4700
    16.1111  16.6038  20.7626  21.3904  23.9031  25.8585  26.1717  28.9535
    29.9123  30.5141  31.8431  32.8275  35.0478  35.1776  37.3625  38.6143
    41.1523  42.0004

          k = 0.0000 0.2000 0.3000 (   885 PWs)   bands (ev):

   -23.4059  -6.6561  -6.0190  -5.2692  10.1967  11.3473  12.7711  14.4781
    15.3277  16.5981  19.8773  21.8183  23.2182  26.7616  27.6804  28.6615
    29.6481  30.5719  30.8813  33.6800  34.5743  36.5631  38.0055  38.6478
    40.8058  43.0767

          k = 0.0000 0.2000 0.4000 (   893 PWs)   bands (ev):

   -23.3487  -7.0748  -5.9594  -5.2219  10.6178  11.2080  12.6967  14.7013
    15.4008  16.7449  20.0380  22.2035  22.6614  26.4858  26.8601  28.1993
    28.2141  31.7270  33.4212  34.0669  35.3430  37.1443  37.5098  39.0755
    40.4366  42.1912

          k = 0.0000 0.2000-0.5000 (   890 PWs)   bands (ev):

   -23.3265  -7.2280  -5.9362  -5.2036  10.8509  11.0464  12.6717  14.4815
    15.6337  16.8081  20.9590  21.8364  23.7589  23.8692  26.7411  27.8328
    28.1721  33.7677  34.9550  35.1119  35.4015  35.5544  36.7548  38.3369
    40.3813  42.3463

          k = 0.0000 0.3000 0.3000 (   886 PWs)   bands (ev):

   -23.3373  -6.5975  -6.5469  -5.2128  10.2716  11.1254  14.1594  14.6331
    15.4056  15.7693  19.8921  21.1652  24.2342  26.3698  27.7119  28.7373
    29.9013  29.9792  31.5549  31.9410  36.5462  36.6586  39.7457  40.1221
    41.0327  42.4002

          k = 0.0000 0.3000 0.4000 (   891 PWs)   bands (ev):

   -23.2806  -6.9860  -6.5031  -5.1664   9.9335  11.2626  14.5139  14.9285
    15.7964  15.8354  19.8533  21.7673  23.8885  25.5945  26.2543  28.0744
    30.3553  30.7716  31.7196  33.8880  36.9703  37.3236  39.1310  39.5276
    41.7515  42.4234

          k = 0.0000 0.3000-0.5000 (   892 PWs)   bands (ev):

   -23.2587  -7.1368  -6.4769  -5.1485   9.7621  11.3760  14.5849  14.7170
    15.8630  16.2216  20.2320  23.2589  23.4961  23.8580  25.3024  27.5312
    30.9254  31.2445  33.7505  34.2245  36.7730  36.9141  37.2276  40.8323
    41.5719  41.8032

          k = 0.0000 0.4000 0.4000 (   902 PWs)   bands (ev):

   -23.2245  -6.9205  -6.9023  -5.1209   9.2866  11.5486  15.0880  15.2092
    16.1249  16.2085  19.7264  22.1710  23.7277  24.6829  25.9833  27.9722
    29.3539  30.7423  33.5569  34.4719  35.5714  39.7160  40.3290  40.3544
    40.4441  40.7478

          k = 0.0000 0.4000-0.5000 (   894 PWs)   bands (ev):

   -23.2027  -7.0607  -6.8826  -5.1033   9.0560  11.6764  14.9281  15.2333
    16.3055  16.6807  19.9817  23.3320  23.6622  23.9374  24.3595  27.7500
    29.1294  32.9723  33.1973  34.0754  37.0508  37.7283  38.8922  40.4626
    41.0878  42.5350

          k = 0.0000-0.5000-0.5000 (   888 PWs)   bands (ev):

   -23.1811  -7.0312  -7.0312  -5.0858   8.8120  11.8039  15.0146  15.0146
    16.8695  16.8695  20.3259  23.0357  24.0277  24.1228  24.1228  25.7358
    30.4678  32.6994  32.6994  36.9882  37.1808  37.2370  38.0352  38.0352
    42.8950  42.8950

          k = 0.1000 0.1000 0.1000 (   901 PWs)   bands (ev):

   -23.5647  -5.6486  -5.6140  -5.6140   8.9706  10.7335  10.7335  16.4437
    16.7891  16.7891  22.3143  22.4521  22.4521  25.1238  25.1238  26.5865
    29.2548  30.9639  30.9639  31.8224  36.5807  38.0141  38.0141  39.1161
    39.1162  41.9879

          k = 0.1000 0.1000 0.2000 (   901 PWs)   bands (ev):

   -23.5095  -6.1308  -5.5851  -5.5647   9.5088  10.9165  11.6667  15.5002
    15.5686  16.8585  20.9700  23.1548  23.2985  23.9983  26.6847  27.5816
    29.9332  30.4523  32.3622  33.4900  35.2057  35.6939  36.1178  39.2758
    40.0504  41.4972

          k = 0.1000 0.1000 0.3000 (   894 PWs)   bands (ev):

   -23.4398  -6.6965  -5.5219  -5.5028  10.1027  11.1722  12.5096  14.4918
    15.1537  17.0375  19.9796  22.0831  23.7486  24.7716  27.9369  29.3409
    29.5155  30.0470  32.3155  33.9756  34.4001  35.5706  36.4381  39.7034
    39.7419  41.7531

          k = 0.1000 0.1000 0.4000 (   881 PWs)   bands (ev):

   -23.3823  -7.1187  -5.4696  -5.4518  10.7218  11.4173  12.2590  13.7673
    15.7323  17.2002  20.2769  21.1715  24.1403  25.3617  26.6432  27.2662
    31.1184  31.6044  32.2053  33.9305  34.4950  36.8929  38.1263  39.7731
    40.5228  41.0896

          k = 0.1000 0.1000-0.5000 (   878 PWs)   bands (ev):

   -23.3600  -7.2730  -5.4494  -5.4320  11.1497  11.5262  11.8519  13.5056
    15.9249  17.2680  20.8485  21.4816  23.7093  25.2216  25.5869  26.8352
    31.3390  31.5998  32.6823  35.8358  36.0120  36.0442  38.5266  38.5329
    38.7323  41.7761

          k = 0.1000 0.2000 0.2000 (   895 PWs)   bands (ev):

   -23.4547  -6.1003  -6.0448  -5.5254  10.0016  11.4468  12.1680  14.5349
    15.5920  15.8583  21.7394  22.0389  24.0694  25.1787  26.2006  28.1335
    28.5800  31.8164  32.7328  34.1851  34.9785  35.4899  37.3084  37.8239
    39.1564  41.4383

          k = 0.1000 0.2000 0.3000 (   888 PWs)   bands (ev):

   -23.3856  -6.6324  -5.9987  -5.4639  10.4439  11.6030  12.7859  14.0902
    15.3005  15.9611  20.7097  22.5527  23.4198  25.7978  27.0715  28.4614
    29.9244  30.3043  31.7648  34.4817  35.0723  36.4472  37.3257  39.0106
    40.9247  41.5534

          k = 0.1000 0.2000 0.4000 (   891 PWs)   bands (ev):

   -23.3285  -7.0493  -5.9396  -5.4133  10.7663  11.5586  12.7333  13.5655
    16.1434  16.4208  20.5575  22.6101  23.0728  25.2793  26.8442  27.4264
    29.8477  32.0984  32.5685  34.9411  35.1458  36.0656  38.6114  39.4611
    40.3640  41.3426

          k = 0.1000 0.2000-0.5000 (   894 PWs)   bands (ev):

   -23.3064  -7.2019  -5.9166  -5.3937  10.8664  11.5362  12.7226  13.3058
    16.2317  16.8734  21.3480  22.1940  23.5472  24.3346  25.4622  27.4863
    29.7387  33.8110  34.3740  35.2656  35.3677  35.8069  36.4515  38.5474
    40.1231  41.3768

          k = 0.1000 0.3000 0.3000 (   888 PWs)   bands (ev):

   -23.3172  -6.5741  -6.5243  -5.4038  10.3827  11.5255  13.8962  14.0670
    15.3575  15.6710  20.8889  21.7090  23.9959  25.6622  27.8038  29.0933
    29.9161  30.2617  30.8743  32.2587  37.2164  37.5946  38.9012  40.1845
    40.6007  40.6308

          k = 0.1000 0.3000 0.4000 (   900 PWs)   bands (ev):

   -23.2607  -6.9613  -6.4807  -5.3544  10.0115  11.7207  13.7417  14.1331
    15.6571  16.8909  20.5920  22.0988  23.3270  25.1722  26.8870  28.9878
    29.8876  30.7558  31.7775  33.2508  37.1605  37.9345  38.3275  40.5096
    40.9275  41.5987

          k = 0.1000 0.3000-0.5000 (   906 PWs)   bands (ev):

   -23.2388  -7.1115  -6.4548  -5.3353   9.8409  11.8608  13.5006  14.1997
    15.7561  17.5356  20.8589  22.5856  23.5413  23.8213  25.6556  28.7466
    30.0633  31.4137  33.8151  34.3390  35.8339  36.4152  38.2029  39.9040
    41.4094  42.2350

          k = 0.1000 0.4000 0.4000 (   895 PWs)   bands (ev):

   -23.2046  -6.8963  -6.8784  -5.3058   9.3775  12.0246  13.9422  14.0020
    16.9825  17.3338  20.3633  21.7765  22.9673  25.9390  26.1031  28.1646
    29.7820  30.8219  32.9952  33.7898  35.6458  39.4677  39.7906  39.9975
    41.2949  41.3850

          k = 0.1000 0.4000-0.5000 (   892 PWs)   bands (ev):

   -23.1830  -7.0362  -6.8588  -5.2871   9.1502  12.1776  13.7426  14.0722
    17.2649  17.9959  20.3909  21.6268  23.8851  24.1741  25.9217  27.7303
    29.5833  33.0361  33.3202  33.4664  36.5782  36.8140  38.9934  40.0718
    41.5169  41.7291

          k = 0.1000-0.5000-0.5000 (   892 PWs)   bands (ev):

   -23.1613  -7.0069  -7.0069  -5.2685   8.9095  12.3289  13.8497  13.8497
    18.1800  18.1800  20.3551  21.2484  24.3547  24.3547  25.7404  25.7970
    30.8274  32.7691  32.7691  36.5378  36.7122  37.1251  37.1251  37.3503
    42.1648  42.3905

          k = 0.2000 0.2000 0.2000 (   907 PWs)   bands (ev):

   -23.4004  -6.0667  -5.9902  -5.9902  10.4541  12.2836  12.2836  14.6037
    14.6037  14.9523  22.6711  23.4997  23.4997  25.8200  25.8200  26.9914
    27.7558  33.6198  33.6198  33.6871  36.2316  36.5647  36.5647  37.7364
    37.7364  39.5915

          k = 0.2000 0.2000 0.3000 (   892 PWs)   bands (ev):

   -23.3318  -6.5697  -5.9659  -5.9213  10.6936  12.3900  12.7925  13.5941
    14.8855  15.5243  21.8854  23.2277  24.1156  25.6941  25.7438  28.4094
    28.9971  30.5931  33.7237  33.9481  35.3707  36.8309  37.9249  39.0547
    39.8211  40.2602

          k = 0.2000 0.2000 0.4000 (   900 PWs)   bands (ev):

   -23.2751  -6.9815  -5.9071  -5.8644  10.7354  12.3218  12.6446  13.1220
    15.2144  17.2929  21.3224  22.8523  23.5260  25.2313  26.4179  27.3121
    31.0431  31.3413  33.2557  33.7682  34.9369  37.2574  38.2779  39.3945
    39.4921  41.4584

          k = 0.2000 0.2000-0.5000 (   900 PWs)   bands (ev):

   -23.2532  -7.1324  -5.8841  -5.8424  10.7135  12.2118  12.5903  13.0558
    15.3265  18.2386  21.7502  22.2521  23.2666  25.1727  25.6634  26.6790
    32.0534  32.3127  33.7023  34.8951  35.5413  35.8692  37.4534  37.4878
    38.8251  42.2551

          k = 0.2000 0.3000 0.3000 (   892 PWs)   bands (ev):

   -23.2638  -6.5124  -6.4644  -5.8740  10.5461  12.2539  13.0031  13.7281
    15.1193  16.0455  21.5697  22.9072  24.6849  25.3062  27.7715  27.9799
    29.5878  30.2665  31.8226  33.0868  36.9244  37.3997  38.4856  39.8277
    40.0159  40.4046

          k = 0.2000 0.3000 0.4000 (   903 PWs)   bands (ev):

   -23.2078  -6.8956  -6.4216  -5.8178  10.2015  12.1205  12.7639  13.7606
    15.6863  17.8662  20.8554  22.3556  24.4512  25.3453  27.2659  28.4307
    30.4492  31.1473  31.9114  32.6514  36.3165  37.2760  38.2751  39.6367
    40.2543  41.0436

          k = 0.2000 0.3000-0.5000 (   900 PWs)   bands (ev):

   -23.1860  -7.0442  -6.3962  -5.7959  10.0435  12.0453  12.6970  13.8102
    15.8141  19.1309  20.8234  21.7891  24.4687  25.0333  25.9590  28.7165
    31.0243  31.2313  33.9806  34.1407  34.9122  35.3950  37.9126  38.2655
    40.2321  42.5609

          k = 0.2000 0.4000 0.4000 (   892 PWs)   bands (ev):

   -23.1521  -6.8321  -6.8150  -5.7628   9.6327  12.2323  12.5489  13.7629
    17.5803  18.5230  19.9930  21.9873  24.2231  26.4957  26.6946  28.2070
    31.0359  31.4496  31.9988  32.5642  35.8380  37.5085  38.4896  38.7602
    40.1502  40.7035

          k = 0.2000 0.4000-0.5000 (   898 PWs)   bands (ev):

   -23.1306  -6.9708  -6.7957  -5.7415   9.4172  12.2436  12.4834  13.7906
    18.0496  19.4583  19.9866  21.3913  24.6966  24.9847  27.1810  27.5864
    31.0623  32.3039  33.2304  33.7582  35.2651  35.5553  37.7800  39.2421
    39.2493  40.2187

          k = 0.2000-0.5000-0.5000 (   896 PWs)   bands (ev):

   -23.1091  -6.9423  -6.9423  -5.7204   9.1876  12.3535  12.3535  13.8012
    19.2536  19.9909  19.9909  20.4335  25.1330  25.1330  25.6836  27.5026
    32.1123  32.9614  32.9614  35.4879  35.5644  35.5644  35.7327  37.6786
    38.0948  41.0464

          k = 0.3000 0.3000 0.3000 (   895 PWs)   bands (ev):

   -23.1966  -6.4527  -6.3887  -6.3887  10.5408  12.0199  12.0199  15.1832
    15.1832  16.6767  20.3671  24.9184  24.9184  26.0797  27.7428  27.7428
    29.6604  30.4454  30.4454  34.7756  35.7294  36.8186  36.8186  40.4797
    40.4797  41.2885

          k = 0.3000 0.3000 0.4000 (   906 PWs)   bands (ev):

   -23.1410  -6.8124  -6.3648  -6.3261  10.2939  11.3490  11.9723  15.2930
    16.1322  18.5251  19.4359  23.7493  25.9060  26.2084  27.6161  27.6447
    30.3581  30.8618  31.4051  34.3251  35.3732  35.4467  37.8634  38.7608
    39.4612  41.3563

          k = 0.3000 0.3000-0.5000 (   912 PWs)   bands (ev):

   -23.1195  -6.9589  -6.3401  -6.3019  10.1548  11.1149  12.0216  15.3415
    16.3258  19.0145  20.5590  22.2534  25.9723  26.3620  26.5892  27.7721
    30.4904  32.9090  33.0862  34.0556  34.4263  35.3851  35.5876  37.5615
    40.1409  42.3888

          k = 0.3000 0.4000 0.4000 (   909 PWs)   bands (ev):

   -23.0859  -6.7508  -6.7348  -6.2829   9.9841  11.2177  11.3983  15.8018
    17.8952  18.3621  19.4000  23.7225  26.0817  26.6606  27.2471  27.9339
    31.1462  31.2215  31.7905  33.8220  34.7154  36.0929  37.0279  37.4407
    39.4118  40.2224

          k = 0.3000 0.4000-0.5000 (   904 PWs)   bands (ev):

   -23.0646  -6.8881  -6.7160  -6.2590   9.7977  11.0752  11.3997  15.8893
    17.9789  18.4824  21.1651  22.2216  26.0185  26.4603  27.1866  27.8120
    31.4591  32.6728  33.4585  33.9774  34.4264  34.8330  34.9148  37.5564
    39.0441  39.7481

          k = 0.3000-0.5000-0.5000 (   904 PWs)   bands (ev):

   -23.0433  -6.8606  -6.8606  -6.2354   9.5928  11.1776  11.1776  15.9852
    17.5823  20.5338  21.3744  21.3744  25.2882  26.5729  26.5729  28.4677
    33.2127  33.2127  34.2438  34.2540  34.2540  34.3150  34.7419  34.7870
    38.1749  40.0672

          k = 0.4000 0.4000 0.4000 (   904 PWs)   bands (ev):

   -23.0312  -6.6897  -6.6683  -6.6683  10.1924  10.6685  10.6685  17.2502
    18.0818  18.0818  20.2275  24.8149  24.8149  27.7290  28.0307  28.0307
    31.4396  31.4396  32.1305  33.1798  35.2912  35.5164  35.5164  36.7399
    39.7864  39.7864

          k = 0.4000 0.4000-0.5000 (   906 PWs)   bands (ev):

   -23.0101  -6.8194  -6.6563  -6.6425  10.0966  10.4186  10.6822  16.8347
    18.1475  19.0270  21.9093  22.5620  25.1549  27.9678  28.1079  28.2127
    31.7180  32.8445  33.2099  33.5333  33.7609  33.8140  35.8289  36.1793
    39.4725  40.0540

          k = 0.4000-0.5000-0.5000 (   916 PWs)   bands (ev):

   -22.9890  -6.7927  -6.7927  -6.6238   9.9983  10.4354  10.4354  16.4066
    18.5856  20.6180  22.1474  22.1474  24.0342  28.2789  28.2789  28.9452
    32.4435  33.2246  33.2246  33.4851  33.7679  33.7679  34.1411  36.2936
    38.7067  40.4318

          k =-0.5000-0.5000-0.5000 (   912 PWs)   bands (ev):

   -22.9680  -6.7664  -6.7664  -6.7664  10.1818  10.1818  10.1818  15.9649
    20.6509  20.6509  22.3923  22.3923  22.3923  29.0986  29.0986  29.0986
    31.8179  33.1151  33.1151  33.1151  33.9141  33.9141  33.9141  36.7913
    38.9669  38.9669

     the Fermi energy is    11.3933 ev

!    total energy              =    -471.69775796 Ry
     total all-electron energy =    -17721.222487 Ry
     estimated scf accuracy    <       0.00001269 Ry
     smearing contrib. (-TS)   =      -0.00053870 Ry
     internal energy E=F+TS    =    -471.69721926 Ry

     The total energy is F=E-TS. E is the sum of the following terms:
     one-electron contribution =      -5.54600643 Ry
     hartree contribution      =       8.43650246 Ry
     xc contribution           =     -73.20826687 Ry
     ewald contribution        =     -55.60404053 Ry
     one-center paw contrib.   =    -345.77540790 Ry

     convergence has been achieved in   3 iterations

     Writing all to output data dir ./work/POSCAR.save/

     init_run     :      0.32s CPU      0.35s WALL (       1 calls)
     electrons    :      1.62s CPU      2.04s WALL (       1 calls)

     Called by init_run:
     wfcinit      :      0.08s CPU      0.09s WALL (       1 calls)
     potinit      :      0.14s CPU      0.17s WALL (       1 calls)
     hinit0       :      0.08s CPU      0.08s WALL (       1 calls)

     Called by electrons:
     c_bands      :      1.37s CPU      1.76s WALL (       4 calls)
     sum_band     :      0.15s CPU      0.15s WALL (       4 calls)
     v_of_rho     :      0.00s CPU      0.00s WALL (       4 calls)
     newd         :      0.01s CPU      0.01s WALL (       4 calls)
     PAW_pot      :      0.10s CPU      0.14s WALL (       4 calls)
     mix_rho      :      0.00s CPU      0.00s WALL (       4 calls)

     Called by c_bands:
     init_us_2    :      0.01s CPU      0.01s WALL (     504 calls)
     init_us_2:cp :      0.01s CPU      0.01s WALL (     504 calls)
     cegterg      :      1.33s CPU      1.38s WALL (     224 calls)

     Called by *egterg:
     cdiaghg      :      0.42s CPU      0.44s WALL (    1006 calls)
     h_psi        :      0.78s CPU      0.81s WALL (    1118 calls)
     s_psi        :      0.01s CPU      0.01s WALL (    1118 calls)
     g_psi        :      0.01s CPU      0.01s WALL (     838 calls)

     Called by h_psi:
     h_psi:calbec :      0.04s CPU      0.04s WALL (    1118 calls)
     vloc_psi     :      0.73s CPU      0.76s WALL (    1118 calls)
     add_vuspsi   :      0.01s CPU      0.01s WALL (    1118 calls)

     General routines
     calbec       :      0.04s CPU      0.05s WALL (    1342 calls)
     fft          :      0.06s CPU      0.06s WALL (      51 calls)
     ffts         :      0.13s CPU      0.13s WALL (       8 calls)
     fftw         :      0.78s CPU      0.81s WALL (   40212 calls)
     interpolate  :      0.13s CPU      0.13s WALL (       4 calls)

     Parallel routines

     PWSCF        :      2.11s CPU      3.10s WALL


   This run was terminated on:  22:39:40  15May2024            

=------------------------------------------------------------------------------=
   JOB DONE.
=------------------------------------------------------------------------------=
