
     Program PWSCF v.7.1 starts on 15May2024 at 22:40:41 

     This program is part of the open-source Quantum ESPRESSO suite
     for quantum simulation of materials; please cite
         "P. Giannozzi et al., J. Phys.:Condens. Matter 21 395502 (2009);
         "P. Giannozzi et al., J. Phys.:Condens. Matter 29 465901 (2017);
         "P. Giannozzi et al., J. Chem. Phys. 152 154105 (2020);
          URL http://www.quantum-espresso.org", 
     in publications or presentations arising from this work. More details at
     http://www.quantum-espresso.org/quote

     Parallel version (MPI & OpenMP), running on      10 processor cores
     Number of MPI processes:                10
     Threads/MPI process:                     1

     MPI processes distributed on     1 nodes
     14554 MiB available memory on the printing compute node when the environment starts

     Waiting for input...
     Reading input from standard input

     Current dimensions of program PWSCF are:
     Max number of different atomic species (ntypx) = 10
     Max number of k-points (npk) =  40000
     Max angular momentum in pseudopotentials (lmaxx) =  4

     Atomic positions and unit cell read from directory:
     ./work/POSCAR.save/

     file Ce.pbe-spdn-kjpaw_psl.1.0.0.UPF: wavefunction(s)  5D renormalized
     Message from routine setup:
     using ibrav=0 with symmetry is DISCOURAGED, use correct ibrav instead

     R & G space division:  proc/nbgrp/npool/nimage =      10
     Subspace diagonalization in iterative solution of the eigenvalue problem:
     a serial algorithm will be used


     Parallelization info
     --------------------
     sticks:   dense  smooth     PW     G-vecs:    dense   smooth      PW
     Min          57      47     14                 1025      768     136
     Max          59      49     15                 1026      770     137
     Sum         577     481    145                10251     7689    1365

     Using Slab Decomposition



     bravais-lattice index     =            0
     lattice parameter (alat)  =       6.3239  a.u.
     unit-cell volume          =     252.8982 (a.u.)^3
     number of atoms/cell      =            1
     number of atomic types    =            1
     number of electrons       =        11.00
     number of Kohn-Sham states=           26
     kinetic-energy cutoff     =      37.0000  Ry
     charge density cutoff     =     179.0000  Ry
     Exchange-correlation= SLA  PW   PBX  PBC
                           (   1   4   3   4   0   0   0)

     celldm(1)=   6.323855  celldm(2)=   0.000000  celldm(3)=   0.000000
     celldm(4)=   0.000000  celldm(5)=   0.000000  celldm(6)=   0.000000

     crystal axes: (cart. coord. in units of alat)
               a(1) = (   1.000000   0.000000   0.000000 )  
               a(2) = (   0.000000   1.000000   0.000000 )  
               a(3) = (   0.000000   0.000000   1.000000 )  

     reciprocal axes: (cart. coord. in units 2 pi/alat)
               b(1) = (  1.000000  0.000000  0.000000 )  
               b(2) = (  0.000000  1.000000  0.000000 )  
               b(3) = (  0.000000  0.000000  1.000000 )  


     PseudoPot. # 1 for Ce read from file:
     ./../../../../pseudo/psl100_PBE/Ce.pbe-spdn-kjpaw_psl.1.0.0.UPF
     MD5 check sum: 1a25380276e46fcecd5a173acdad072c
     Pseudo is Projector augmented-wave + core cor, Zval = 11.0
     Generated using 'atomic' code by A. Dal Corso  v.7.2
     Shape of augmentation charge: PSQ
     Using radial grid of 1255 points,  6 beta functions with: 
                l(1) =   0
                l(2) =   0
                l(3) =   1
                l(4) =   1
                l(5) =   2
                l(6) =   2
     Q(r) pseudized with 0 coefficients 


     atomic species   valence    mass     pseudopotential
        Ce            11.00   140.11600     Ce( 1.00)

     48 Sym. Ops., with inversion, found



   Cartesian axes

     site n.     atom                  positions (alat units)
         1           Ce  tau(   1) = (   0.0000000   0.0000000   0.0000000  )

     number of k points=    91  Methfessel-Paxton smearing, width (Ry)=  0.0200
                       cart. coord. in units 2pi/alat
        k(    1) = (   0.0000000   0.5000000   0.5000000), wk =   0.0219780
        k(    2) = (   0.0500000   0.5000000   0.5000000), wk =   0.0219780
        k(    3) = (   0.1000000   0.5000000   0.5000000), wk =   0.0219780
        k(    4) = (   0.1500000   0.5000000   0.5000000), wk =   0.0219780
        k(    5) = (   0.2000000   0.5000000   0.5000000), wk =   0.0219780
        k(    6) = (   0.2500000   0.5000000   0.5000000), wk =   0.0219780
        k(    7) = (   0.3000000   0.5000000   0.5000000), wk =   0.0219780
        k(    8) = (   0.3500000   0.5000000   0.5000000), wk =   0.0219780
        k(    9) = (   0.4000000   0.5000000   0.5000000), wk =   0.0219780
        k(   10) = (   0.4500000   0.5000000   0.5000000), wk =   0.0219780
        k(   11) = (   0.5000000   0.5000000   0.5000000), wk =   0.0219780
        k(   12) = (   0.4750000   0.4750000   0.4750000), wk =   0.0219780
        k(   13) = (   0.4500000   0.4500000   0.4500000), wk =   0.0219780
        k(   14) = (   0.4250000   0.4250000   0.4250000), wk =   0.0219780
        k(   15) = (   0.4000000   0.4000000   0.4000000), wk =   0.0219780
        k(   16) = (   0.3750000   0.3750000   0.3750000), wk =   0.0219780
        k(   17) = (   0.3500000   0.3500000   0.3500000), wk =   0.0219780
        k(   18) = (   0.3250000   0.3250000   0.3250000), wk =   0.0219780
        k(   19) = (   0.3000000   0.3000000   0.3000000), wk =   0.0219780
        k(   20) = (   0.2750000   0.2750000   0.2750000), wk =   0.0219780
        k(   21) = (   0.2500000   0.2500000   0.2500000), wk =   0.0219780
        k(   22) = (   0.2250000   0.2250000   0.2250000), wk =   0.0219780
        k(   23) = (   0.2000000   0.2000000   0.2000000), wk =   0.0219780
        k(   24) = (   0.1750000   0.1750000   0.1750000), wk =   0.0219780
        k(   25) = (   0.1500000   0.1500000   0.1500000), wk =   0.0219780
        k(   26) = (   0.1250000   0.1250000   0.1250000), wk =   0.0219780
        k(   27) = (   0.1000000   0.1000000   0.1000000), wk =   0.0219780
        k(   28) = (   0.0750000   0.0750000   0.0750000), wk =   0.0219780
        k(   29) = (   0.0500000   0.0500000   0.0500000), wk =   0.0219780
        k(   30) = (   0.0250000   0.0250000   0.0250000), wk =   0.0219780
        k(   31) = (   0.0000000   0.0000000   0.0000000), wk =   0.0219780
        k(   32) = (   0.0500000   0.0000000   0.0000000), wk =   0.0219780
        k(   33) = (   0.1000000   0.0000000   0.0000000), wk =   0.0219780
        k(   34) = (   0.1500000   0.0000000   0.0000000), wk =   0.0219780
        k(   35) = (   0.2000000   0.0000000   0.0000000), wk =   0.0219780
        k(   36) = (   0.2500000   0.0000000   0.0000000), wk =   0.0219780
        k(   37) = (   0.3000000   0.0000000   0.0000000), wk =   0.0219780
        k(   38) = (   0.3500000   0.0000000   0.0000000), wk =   0.0219780
        k(   39) = (   0.4000000   0.0000000   0.0000000), wk =   0.0219780
        k(   40) = (   0.4500000   0.0000000   0.0000000), wk =   0.0219780
        k(   41) = (   0.5000000   0.0000000   0.0000000), wk =   0.0219780
        k(   42) = (   0.5000000   0.0500000   0.0000000), wk =   0.0219780
        k(   43) = (   0.5000000   0.1000000   0.0000000), wk =   0.0219780
        k(   44) = (   0.5000000   0.1500000   0.0000000), wk =   0.0219780
        k(   45) = (   0.5000000   0.2000000   0.0000000), wk =   0.0219780
        k(   46) = (   0.5000000   0.2500000   0.0000000), wk =   0.0219780
        k(   47) = (   0.5000000   0.3000000   0.0000000), wk =   0.0219780
        k(   48) = (   0.5000000   0.3500000   0.0000000), wk =   0.0219780
        k(   49) = (   0.5000000   0.4000000   0.0000000), wk =   0.0219780
        k(   50) = (   0.5000000   0.4500000   0.0000000), wk =   0.0219780
        k(   51) = (   0.5000000   0.5000000   0.0000000), wk =   0.0219780
        k(   52) = (   0.4750000   0.4750000   0.0000000), wk =   0.0219780
        k(   53) = (   0.4500000   0.4500000   0.0000000), wk =   0.0219780
        k(   54) = (   0.4250000   0.4250000   0.0000000), wk =   0.0219780
        k(   55) = (   0.4000000   0.4000000   0.0000000), wk =   0.0219780
        k(   56) = (   0.3750000   0.3750000   0.0000000), wk =   0.0219780
        k(   57) = (   0.3500000   0.3500000   0.0000000), wk =   0.0219780
        k(   58) = (   0.3250000   0.3250000   0.0000000), wk =   0.0219780
        k(   59) = (   0.3000000   0.3000000   0.0000000), wk =   0.0219780
        k(   60) = (   0.2750000   0.2750000   0.0000000), wk =   0.0219780
        k(   61) = (   0.2500000   0.2500000   0.0000000), wk =   0.0219780
        k(   62) = (   0.2250000   0.2250000   0.0000000), wk =   0.0219780
        k(   63) = (   0.2000000   0.2000000   0.0000000), wk =   0.0219780
        k(   64) = (   0.1750000   0.1750000   0.0000000), wk =   0.0219780
        k(   65) = (   0.1500000   0.1500000   0.0000000), wk =   0.0219780
        k(   66) = (   0.1250000   0.1250000   0.0000000), wk =   0.0219780
        k(   67) = (   0.1000000   0.1000000   0.0000000), wk =   0.0219780
        k(   68) = (   0.0750000   0.0750000   0.0000000), wk =   0.0219780
        k(   69) = (   0.0500000   0.0500000   0.0000000), wk =   0.0219780
        k(   70) = (   0.0250000   0.0250000   0.0000000), wk =   0.0219780
        k(   71) = (   0.0000000   0.0000000   0.0000000), wk =   0.0219780
        k(   72) = (   0.0250000   0.0250000   0.0250000), wk =   0.0219780
        k(   73) = (   0.0500000   0.0500000   0.0500000), wk =   0.0219780
        k(   74) = (   0.0750000   0.0750000   0.0750000), wk =   0.0219780
        k(   75) = (   0.1000000   0.1000000   0.1000000), wk =   0.0219780
        k(   76) = (   0.1250000   0.1250000   0.1250000), wk =   0.0219780
        k(   77) = (   0.1500000   0.1500000   0.1500000), wk =   0.0219780
        k(   78) = (   0.1750000   0.1750000   0.1750000), wk =   0.0219780
        k(   79) = (   0.2000000   0.2000000   0.2000000), wk =   0.0219780
        k(   80) = (   0.2250000   0.2250000   0.2250000), wk =   0.0219780
        k(   81) = (   0.2500000   0.2500000   0.2500000), wk =   0.0219780
        k(   82) = (   0.2750000   0.2750000   0.2750000), wk =   0.0219780
        k(   83) = (   0.3000000   0.3000000   0.3000000), wk =   0.0219780
        k(   84) = (   0.3250000   0.3250000   0.3250000), wk =   0.0219780
        k(   85) = (   0.3500000   0.3500000   0.3500000), wk =   0.0219780
        k(   86) = (   0.3750000   0.3750000   0.3750000), wk =   0.0219780
        k(   87) = (   0.4000000   0.4000000   0.4000000), wk =   0.0219780
        k(   88) = (   0.4250000   0.4250000   0.4250000), wk =   0.0219780
        k(   89) = (   0.4500000   0.4500000   0.4500000), wk =   0.0219780
        k(   90) = (   0.4750000   0.4750000   0.4750000), wk =   0.0219780
        k(   91) = (   0.5000000   0.5000000   0.5000000), wk =   0.0219780

     Dense  grid:    10251 G-vectors     FFT dimensions: (  27,  27,  27)

     Smooth grid:     7689 G-vectors     FFT dimensions: (  25,  25,  25)

     Estimated max dynamical RAM per process >       4.36 MB

     Estimated total dynamical RAM >      43.55 MB

     The potential is recalculated from file :
     ./work/POSCAR.save/charge-density

     Starting wfcs are   13 randomized atomic wfcs +   13 random wfcs
     Checking if some PAW data can be deallocated... 

     Band Structure Calculation
     Davidson diagonalization with overlap

     ethr =  6.64E-07,  avg # of iterations = 18.3

     total cpu time spent up to now is        3.9 secs

     End of band structure calculation

          k = 0.0000 0.5000 0.5000 (   952 PWs)   bands (ev):

   -24.2082  -7.8674  -7.8674  -6.2486   8.1594  10.8088  13.8958  13.8958
    15.5316  15.5316  18.7092  21.5733  22.6836  22.6836  22.7801  23.6247
    28.6411  31.0397  31.0397  34.8510  35.3228  35.3910  35.6639  35.6639
    40.4735  40.4735

          k = 0.0500 0.5000 0.5000 (   972 PWs)   bands (ev):

   -24.2043  -7.8623  -7.8623  -6.2876   8.1825  10.9292  13.5117  13.5117
    15.9464  15.9464  18.7158  20.9629  22.7411  22.7411  23.3786  23.6262
    28.7340  31.0563  31.0563  34.7421  35.2009  35.4183  35.4215  35.4215
    40.7422  40.7858

          k = 0.1000 0.5000 0.5000 (   976 PWs)   bands (ev):

   -24.1928  -7.8475  -7.8475  -6.3988   8.2510  11.2846  12.8130  12.8130
    16.7304  16.7304  18.7350  20.0085  22.9181  22.9181  23.6274  24.2793
    29.0293  31.1055  31.1055  34.4394  34.8363  34.8363  34.8756  35.4997
    39.3117  40.2043

          k = 0.1500 0.5000 0.5000 (   976 PWs)   bands (ev):

   -24.1749  -7.8243  -7.8243  -6.5676   8.3624  11.8589  12.0975  12.0975
    17.5661  17.5661  18.7654  19.0524  23.2263  23.2263  23.6171  25.0962
    29.5662  31.1840  31.1840  33.9996  34.1227  34.1227  34.4310  35.6332
    37.3078  39.5603

          k = 0.2000 0.5000 0.5000 (   976 PWs)   bands (ev):

   -24.1520  -7.7947  -7.7947  -6.7731   8.5119  11.4339  11.4339  12.6286
    18.1465  18.3557  18.3557  18.8041  23.5732  23.6797  23.6797  25.7445
    30.3670  31.2862  31.2862  33.4090  33.4090  33.4848  33.9449  35.3815
    35.8150  38.9314

          k = 0.2500 0.5000 0.5000 (   968 PWs)   bands (ev):

   -24.1265  -7.7615  -7.7615  -6.9924   8.6920  10.8474  10.8474  13.5661
    17.3144  18.8478  19.0452  19.0452  23.4589  24.2808  24.2808  26.2194
    31.3926  31.4020  31.4020  32.7680  32.7680  32.9370  33.4725  33.6156
    36.0385  38.3918

          k = 0.3000 0.5000 0.5000 (   972 PWs)   bands (ev):

   -24.1008  -7.7280  -7.7280  -7.2039   8.8908  10.3519  10.3519  14.6412
    16.5757  18.8923  19.6056  19.6056  23.2167  25.0009  25.0009  26.5586
    31.5065  31.5065  31.9758  32.2636  32.2636  32.5065  32.5388  33.0499
    36.2928  38.0185

          k = 0.3500 0.5000 0.5000 (   964 PWs)   bands (ev):

   -24.0774  -7.6975  -7.6975  -7.3884   9.0908   9.9571   9.9571  15.8199
    15.9524  18.9331  20.0308  20.0308  22.7751  25.7653  25.7653  26.8007
    30.7332  31.5231  31.5231  32.0060  32.0060  32.0430  32.7009  33.6377
    36.5591  37.9421

          k = 0.4000 0.5000 0.5000 (   960 PWs)   bands (ev):

   -24.0587  -7.6730  -7.6730  -7.5310   9.2677   9.6700   9.6700  15.4715
    17.0572  18.9660  20.3275  20.3275  22.0837  26.4543  26.4543  26.9670
    29.8407  31.4332  31.4332  31.6947  32.0361  32.0361  32.4409  34.4449
    36.8069  38.3750

          k = 0.4500 0.5000 0.5000 (   968 PWs)   bands (ev):

   -24.0466  -7.6572  -7.6572  -7.6210   9.3921   9.4957   9.4957  15.1642
    18.2637  18.9873  20.5029  20.5029  21.1922  26.9306  26.9306  27.0658
    29.3297  31.3945  31.3945  31.4727  32.1590  32.1590  32.2811  34.8287
    36.9907  37.4464

          k = 0.5000 0.5000 0.5000 (   968 PWs)   bands (ev):

   -24.0425  -7.6517  -7.6517  -7.6517   9.4373   9.4373   9.4373  15.0579
    18.9947  18.9947  20.5611  20.5611  20.5611  27.0987  27.0987  27.0987
    29.1671  31.3963  31.3963  31.3963  32.2271  32.2271  32.2271  34.9241
    37.0600  37.0600

          k = 0.4750 0.4750 0.4750 (   968 PWs)   bands (ev):

   -24.0456  -7.6476  -7.6463  -7.6463   9.4335   9.4659   9.4659  15.1380
    18.6678  18.6678  20.3971  20.8882  20.8882  27.0009  27.0121  27.0121
    29.2860  31.3110  31.3110  31.5778  32.0737  32.2863  32.2863  34.8624
    37.2300  37.2300

          k = 0.4500 0.4500 0.4500 (   955 PWs)   bands (ev):

   -24.0550  -7.6351  -7.6302  -7.6302   9.4253   9.5514   9.5514  15.3739
    18.0273  18.0273  19.9424  21.5247  21.5247  26.7345  26.7842  26.7842
    29.6231  30.9832  30.9832  31.6729  32.0703  32.5566  32.5566  34.7106
    37.6731  37.6731

          k = 0.4250 0.4250 0.4250 (   967 PWs)   bands (ev):

   -24.0704  -7.6144  -7.6036  -7.6036   9.4213   9.6930   9.6930  15.7534
    17.3185  17.3185  19.2803  22.2072  22.2072  26.3617  26.4886  26.4886
    30.1185  30.4523  30.4523  31.1330  32.7433  33.0288  33.0288  34.5682
    38.0592  38.0592

          k = 0.4000 0.4000 0.4000 (   973 PWs)   bands (ev):

   -24.0914  -7.5852  -7.5667  -7.5667   9.4314   9.8890   9.8890  16.2601
    16.6009  16.6009  18.4947  22.8346  22.8346  25.9411  26.2135  26.2135
    29.8312  29.8312  30.5335  30.7060  33.3134  33.5983  33.5983  34.6971
    37.7835  37.7835

          k = 0.3750 0.3750 0.3750 (   970 PWs)   bands (ev):

   -24.1174  -7.5473  -7.5199  -7.5199   9.4636  10.1369  10.1369  15.8942
    15.8942  16.8739  17.6525  23.3015  23.3015  25.5117  26.0617  26.0617
    29.2061  29.2061  29.9195  31.3412  33.4215  34.1569  34.1569  35.4352
    37.5241  37.5241

          k = 0.3500 0.3500 0.3500 (   964 PWs)   bands (ev):

   -24.1480  -7.5006  -7.4637  -7.4637   9.5208  10.4326  10.4326  15.2093
    15.2093  16.7903  17.5865  23.4934  23.4934  25.1011  26.1059  26.1059
    28.6713  28.6713  29.3148  32.0000  33.2970  34.5794  34.5794  36.5264
    37.5408  37.5409

          k = 0.3250 0.3250 0.3250 (   961 PWs)   bands (ev):

   -24.1822  -7.4452  -7.3990  -7.3990   9.5989  10.7692  10.7692  14.5563
    14.5563  15.9671  18.3538  23.4114  23.4114  24.7345  26.2040  26.2040
    28.4009  28.4009  28.7334  32.6677  33.1370  34.7840  34.7840  37.7279
    37.8801  37.8801

          k = 0.3000 0.3000 0.3000 (   973 PWs)   bands (ev):

   -24.2194  -7.3813  -7.3267  -7.3267   9.6840  11.1324  11.1324  13.9506
    13.9506  15.2086  19.1532  23.1714  23.1714  24.4453  26.0571  26.0571
    28.1829  28.5992  28.5992  32.9835  33.3287  34.8241  34.8241  38.3610
    38.3610  38.8052

          k = 0.2750 0.2750 0.2750 (   967 PWs)   bands (ev):

   -24.2585  -7.3092  -7.2480  -7.2480   9.7485  11.4858  11.4858  13.4286
    13.4286  14.5604  19.9244  22.8676  22.8676  24.2896  25.6719  25.6719
    27.6686  29.1785  29.1785  32.8337  33.9483  34.8015  34.8015  38.4220
    38.4220  38.4695

          k = 0.2500 0.2500 0.2500 (   958 PWs)   bands (ev):

   -24.2986  -7.2297  -7.1644  -7.1644   9.7499  11.7146  11.7146  13.1036
    13.1036  14.0759  20.5687  22.5476  22.5476  24.3628  25.2132  25.2132
    27.1935  29.9303  29.9303  32.6467  34.4265  34.7741  34.7741  37.4204
    37.6204  37.6204

          k = 0.2250 0.2250 0.2250 (   958 PWs)   bands (ev):

   -24.3387  -7.1442  -7.0778  -7.0778   9.6423  11.6187  11.6187  13.1729
    13.1729  13.8080  20.9740  22.2334  22.2334  24.7683  24.7683  24.7729
    26.7599  30.7290  30.7290  32.3171  34.5201  34.7457  34.7457  36.5378
    36.5378  36.9170

          k = 0.2000 0.2000 0.2000 (   952 PWs)   bands (ev):

   -24.3778  -7.0543  -6.9901  -6.9901   9.4075  11.2810  11.2810  13.5487
    13.5487  13.7784  21.1226  21.9357  21.9357  24.3770  24.3770  25.5316
    26.3693  31.4449  31.4449  31.6813  34.2814  34.6226  34.6226  35.6753
    35.6753  37.1516

          k = 0.1750 0.1750 0.1750 (   952 PWs)   bands (ev):

   -24.4150  -6.9625  -6.9037  -6.9037   9.0738  10.8897  10.8897  13.9591
    14.0353  14.0353  21.1054  21.6602  21.6602  24.0631  24.0631  26.0228
    26.5388  30.7261  31.7473  31.7473  34.1487  34.4103  34.4103  35.4246
    35.4246  37.7139

          k = 0.1500 0.1500 0.1500 (   952 PWs)   bands (ev):

   -24.4493  -6.8716  -6.8212  -6.8212   8.6935  10.5141  10.5141  14.2945
    14.5524  14.5524  21.0137  21.4101  21.4101  23.8452  23.8452  25.7213
    27.6812  29.6290  31.2508  31.2508  34.1969  34.7603  34.7603  35.5410
    35.5410  38.3632

          k = 0.1250 0.1250 0.1250 (   958 PWs)   bands (ev):

   -24.4799  -6.7852  -6.7453  -6.7453   8.3141  10.1779  10.1779  14.7282
    15.0613  15.0613  20.9014  21.1879  21.1879  23.7402  23.7402  25.4653
    28.3734  29.0361  30.3061  30.3061  34.3800  35.5033  35.5033  35.8537
    35.8537  39.0069

          k = 0.1000 0.1000 0.1000 (   964 PWs)   bands (ev):

   -24.5061  -6.7071  -6.6785  -6.6785   7.9695   9.8924   9.8924  15.2098
    15.5314  15.5314  20.7966  20.9969  20.9969  23.7632  23.7632  25.2554
    27.3876  29.2627  29.2627  30.1814  34.6879  36.0050  36.0050  36.6535
    36.6535  39.5616

          k = 0.0750 0.0750 0.0750 (   964 PWs)   bands (ev):

   -24.5271  -6.6410  -6.6235  -6.6235   7.6824   9.6643   9.6643  15.6885
    15.9341  15.9341  20.7143  20.8409  20.8409  23.9252  23.9252  25.0918
    26.4540  28.2408  28.2408  31.2926  35.1585  36.4046  36.4046  37.6781
    37.6781  39.8332

          k = 0.0500 0.0500 0.0500 (   958 PWs)   bands (ev):

   -24.5425  -6.5907  -6.5824  -6.5824   7.4678   9.4982   9.4982  16.1063
    16.2428  16.2428  20.6610  20.7247  20.7247  24.2248  24.2248  24.9749
    25.6985  27.2979  27.2979  32.1660  35.8642  36.8399  36.8399  38.6342
    38.6342  39.6004

          k = 0.0250 0.0250 0.0250 (   949 PWs)   bands (ev):

   -24.5519  -6.5592  -6.5570  -6.5570   7.3353   9.3974   9.3974  16.3975
    16.4368  16.4368  20.6351  20.6528  20.6528  24.6213  24.6213  24.9046
    25.1967  26.5053  26.5053  32.6902  36.8075  37.2907  37.2907  38.6835
    38.6835  39.0171

          k = 0.0000 0.0000 0.0000 (   949 PWs)   bands (ev):

   -24.5551  -6.5484  -6.5484  -6.5484   7.2906   9.3635   9.3635  16.5029
    16.5029  16.5029  20.6284  20.6284  20.6284  24.8812  24.8812  24.8812
    25.0191  26.1118  26.1118  32.8583  37.5675  37.5675  37.5675  38.4071
    38.4071  38.4071

          k = 0.0500 0.0000 0.0000 (   949 PWs)   bands (ev):

   -24.5509  -6.5927  -6.5447  -6.5447   7.3493   9.3796   9.4380  16.3462
    16.3462  16.5117  20.3792  20.7903  20.7903  24.2045  24.9764  24.9764
    25.2251  26.2542  26.8611  32.6508  36.7619  36.7619  37.8540  37.9574
    39.2249  39.2249

          k = 0.1000 0.0000 0.0000 (   965 PWs)   bands (ev):

   -24.5387  -6.7189  -6.5340  -6.5340   7.5129   9.4268   9.6624  15.9505
    15.9505  16.5376  19.7898  21.1928  21.1928  23.2138  25.2685  25.2685
    25.5515  26.8135  28.0698  32.1428  35.7061  35.7061  36.8049  37.6978
    38.5991  40.2132

          k = 0.1500 0.0000 0.0000 (   972 PWs)   bands (ev):

   -24.5197  -6.9093  -6.5173  -6.5173   7.7508   9.5023  10.0334  15.4454
    15.4454  16.5784  19.0969  21.6868  21.6868  22.2617  25.7511  25.7682
    25.7682  27.7929  29.3861  31.5152  34.7139  34.7139  35.0356  36.5580
    39.6230  40.7924

          k = 0.2000 0.0000 0.0000 (   964 PWs)   bands (ev):

   -24.4954  -7.1393  -6.4959  -6.4959   8.0314   9.6013  10.5247  14.9222
    14.9222  16.6310  18.4521  21.3893  22.1696  22.1696  25.8769  26.4673
    26.4673  28.9623  30.7698  30.8781  33.1511  33.8288  33.8288  35.6779
    40.8170  41.0255

          k = 0.2500 0.0000 0.0000 (   956 PWs)   bands (ev):

   -24.4683  -7.3832  -6.4721  -6.4721   8.3337   9.7166  11.0705  14.4326
    14.4326  16.6906  17.9665  20.6133  22.5997  22.5997  25.9194  27.3140
    27.3140  30.1150  30.2871  31.4071  32.2044  33.0982  33.0982  35.0237
    41.1334  41.1334

          k = 0.3000 0.0000 0.0000 (   956 PWs)   bands (ev):

   -24.4410  -7.6167  -6.4481  -6.4481   8.6450   9.8385  11.5618  14.0058
    14.0058  16.7518  17.7548  19.9476  22.9709  22.9709  25.7501  28.1911
    28.1911  29.7732  29.8458  31.1256  32.6144  32.6144  33.6744  34.8166
    41.1576  41.1576

          k = 0.3500 0.0000 0.0000 (   964 PWs)   bands (ev):

   -24.4161  -7.8196  -6.4264  -6.4264   8.9517   9.9549  11.8813  13.6596
    13.6596  16.8084  17.9249  19.4065  23.2831  23.2831  25.1289  28.8876
    28.8876  28.9558  29.3556  31.4183  32.5606  32.5606  35.1577  35.3991
    40.8562  40.8562

          k = 0.4000 0.0000 0.0000 (   960 PWs)   bands (ev):

   -24.3962  -7.9757  -6.4090  -6.4090   9.2294  10.0522  11.9906  13.4053
    13.4053  16.8543  18.4956  19.0050  23.5283  23.5283  24.0352  28.6481
    29.0479  29.2053  29.2053  31.2515  33.1017  33.1017  36.6160  36.6546
    39.5642  39.5643

          k = 0.4500 0.0000 0.0000 (   952 PWs)   bands (ev):

   -24.3833  -8.0738  -6.3978  -6.3978   9.4350  10.1173  11.9715  13.2502
    13.2502  16.8843  18.7571  19.3165  22.8297  23.6889  23.6889  28.6361
    28.8595  29.2488  29.2488  30.9999  34.0378  34.0378  37.9624  38.1134
    38.1134  38.2261

          k = 0.5000 0.0000 0.0000 (   972 PWs)   bands (ev):

   -24.3789  -8.1073  -6.3939  -6.3939   9.5132  10.1402  11.9461  13.1979
    13.1979  16.8947  18.6731  19.8475  22.1640  23.7452  23.7452  28.6634
    28.7959  29.2366  29.2366  30.8893  34.6493  34.6493  37.3435  37.3435
    38.7761  39.7310

          k = 0.5000 0.0500 0.0000 (   954 PWs)   bands (ev):

   -24.3748  -8.1016  -6.4351  -6.3904   9.5835  10.2055  11.6896  13.2126
    13.3909  16.7722  18.8185  19.8293  22.1815  23.5516  23.9538  27.9826
    28.6952  28.9621  30.0808  31.4842  34.4893  34.6603  36.9382  37.3949
    38.1707  39.8414

          k = 0.5000 0.1000 0.0000 (   964 PWs)   bands (ev):

   -24.3630  -8.0852  -6.5530  -6.3803   9.7476  10.4399  11.1634  13.2557
    13.7424  16.4472  19.2320  19.7673  22.2317  23.0971  24.5372  27.0332
    27.8112  29.7360  31.1155  32.4945  34.0709  34.6924  36.2252  36.7286
    37.5530  39.9118

          k = 0.5000 0.1500 0.0000 (   958 PWs)   bands (ev):

   -24.3445  -8.0595  -6.7314  -6.3645   9.9204  10.5758  10.9047  13.3246
    14.0856  16.0080  19.6407  19.8499  22.3061  22.5921  25.4075  26.1406
    26.9832  30.7734  32.1282  33.3152  33.5065  34.7433  35.0156  35.7914
    37.8296  40.0106

          k = 0.5000 0.2000 0.0000 (   952 PWs)   bands (ev):

   -24.3210  -8.0266  -6.9480  -6.3444  10.0007  10.0821  11.5822  13.4145
    14.3961  15.5334  19.4282  20.5756  22.1796  22.3826  25.3237  26.3336
    26.4860  31.6889  32.9479  33.0680  33.3591  33.4672  34.8088  36.2442
    38.2393  40.1235

          k = 0.5000 0.2500 0.0000 (   956 PWs)   bands (ev):

   -24.2948  -7.9899  -7.1784  -6.3221   9.4744  10.2440  12.4097  13.5186
    14.6794  15.0770  19.1380  21.2859  21.9217  22.4104  24.5964  25.9975
    27.7193  30.7399  32.5721  32.8585  33.7401  33.8859  34.8833  37.3365
    38.7853  40.1646

          k = 0.5000 0.3000 0.0000 (   960 PWs)   bands (ev):

   -24.2683  -7.9526  -7.3999  -6.2996   9.0193  10.4066  13.3154  13.6281
    14.6725  14.9395  18.8297  21.8161  21.8593  22.3177  23.9722  26.1227
    29.0218  29.0732  32.0291  32.2811  34.5478  34.9603  35.1448  38.5330
    39.4300  39.6945

          k = 0.5000 0.3500 0.0000 (   958 PWs)   bands (ev):

   -24.2442  -7.9185  -7.5928  -6.2791   8.6510  10.5605  13.7319  14.2038
    14.3412  15.1713  18.5966  21.8395  22.0874  22.2621  23.4654  26.7062
    27.3050  30.5249  31.6057  31.7695  35.0322  35.0464  36.6650  38.3869
    39.5245  40.0742

          k = 0.5000 0.4000 0.0000 (   966 PWs)   bands (ev):

   -24.2250  -7.8912  -7.7417  -6.2628   8.3804  10.6901  13.8182  14.0963
    14.9394  15.3605  18.5291  21.8368  21.9942  22.5027  23.0898  25.7147
    27.5369  31.2948  31.3748  32.0553  35.0916  35.3921  36.9550  38.2141
    38.7378  40.1159

          k = 0.5000 0.4500 0.0000 (   972 PWs)   bands (ev):

   -24.2126  -7.8736  -7.8355  -6.2523   8.2150  10.7777  13.8756  13.9463
    15.3903  15.4869  18.6279  21.6441  22.3249  22.6391  22.8583  24.3642
    28.3079  31.1040  31.1254  33.6369  35.1367  35.5962  35.8362  37.0817
    39.6678  40.3921

          k = 0.5000 0.5000 0.0000 (   952 PWs)   bands (ev):

   -24.2082  -7.8674  -7.8674  -6.2486   8.1594  10.8088  13.8958  13.8958
    15.5316  15.5316  18.7092  21.5733  22.6836  22.6836  22.7801  23.6247
    28.6411  31.0397  31.0397  34.8510  35.3228  35.3910  35.6639  35.6639
    40.4735  40.4735

          k = 0.4750 0.4750 0.0000 (   970 PWs)   bands (ev):

   -24.2104  -7.8615  -7.8604  -6.2505   8.1872  10.7930  13.8995  13.9071
    15.4846  15.4874  18.6630  21.6060  22.3447  22.8094  22.8193  24.0123
    28.4803  30.8572  31.2889  34.2378  34.7349  35.6163  36.2488  36.2543
    40.1774  40.2525

          k = 0.4500 0.4500 0.0000 (   970 PWs)   bands (ev):

   -24.2169  -7.8436  -7.8394  -6.2560   8.2698  10.7465  13.9113  13.9412
    15.3419  15.3568  18.5539  21.5889  21.9323  22.9361  23.1587  24.6755
    28.1433  30.3977  31.8997  33.3358  34.0113  36.2029  36.9844  37.0498
    39.5310  39.6806

          k = 0.4250 0.4250 0.0000 (   960 PWs)   bands (ev):

   -24.2274  -7.8139  -7.8049  -6.2649   8.4046  10.6715  13.9324  13.9976
    15.1028  15.1458  18.4404  21.1735  22.0124  23.1280  23.6714  25.3554
    27.8318  29.8060  32.4101  32.7028  33.2889  36.9960  37.7110  37.7440
    38.7714  38.9095

          k = 0.4000 0.4000 0.0000 (   960 PWs)   bands (ev):

   -24.2418  -7.7725  -7.7572  -6.2771   8.5865  10.5721  13.9648  14.0759
    14.7744  14.8637  18.3672  20.7330  22.2252  23.3906  24.2901  25.9377
    27.7097  29.1780  31.4891  32.5740  33.6194  37.6906  38.0441  38.1796
    38.1958  38.4146

          k = 0.3750 0.3750 0.0000 (   952 PWs)   bands (ev):

   -24.2596  -7.7197  -7.6973  -6.2922   8.8062  10.4555  14.0111  14.1757
    14.3742  14.5240  18.3527  20.3724  22.4413  23.7174  24.9652  26.2919
    27.9461  28.5730  30.5856  31.8692  34.6090  37.0399  37.1499  38.3243
    38.9631  39.0661

          k = 0.3500 0.3500 0.0000 (   948 PWs)   bands (ev):

   -24.2805  -7.6559  -7.6261  -6.3100   9.0450  10.3352  13.9244  14.0738
    14.1460  14.2958  18.3969  20.1042  22.6088  24.0984  25.6318  26.4834
    28.0552  28.5060  29.7115  31.1764  35.5709  36.2094  36.3443  38.2057
    39.6100  39.8879

          k = 0.3250 0.3250 0.0000 (   951 PWs)   bands (ev):

   -24.3038  -7.5817  -7.5450  -6.3300   9.2623  10.2414  13.4464  13.7569
    14.1554  14.4352  18.4924  19.9269  22.6943  24.5152  26.1201  26.7140
    27.7895  28.8847  29.1965  30.4974  35.2664  35.3788  36.8767  37.9652
    39.6917  39.9588

          k = 0.3000 0.3000 0.0000 (   959 PWs)   bands (ev):

   -24.3291  -7.4979  -7.4553  -6.3517   9.3773  10.2335  12.9576  13.3956
    14.2581  14.5925  18.6308  19.8321  22.6958  24.9275  26.1323  27.0681
    28.0639  28.1446  29.8348  29.8948  34.4900  34.5712  37.6788  37.9143
    38.6975  40.0404

          k = 0.2750 0.2750 0.0000 (   969 PWs)   bands (ev):

   -24.3557  -7.4059  -7.3590  -6.3745   9.3323  10.3302  12.4716  13.1184
    14.3836  14.7658  18.8040  19.8072  22.6395  25.2273  25.8183  27.5364
    27.5973  28.7082  29.1913  30.4990  33.8147  33.8423  37.3842  37.4334
    39.1807  39.8888

          k = 0.2500 0.2500 0.0000 (   959 PWs)   bands (ev):

   -24.3828  -7.3070  -7.2580  -6.3980   9.1766  10.4224  11.9990  12.9995
    14.5332  14.9528  19.0048  19.8380  22.5625  25.1933  25.4415  27.4625
    28.0610  28.5704  29.4054  30.8549  33.1693  33.4912  36.3378  37.1011
    39.6082  40.1642

          k = 0.2250 0.2250 0.0000 (   957 PWs)   bands (ev):

   -24.4099  -7.2035  -7.1546  -6.4214   8.9661  10.4082  11.5480  13.0955
    14.7070  15.1504  19.2260  19.9082  22.4997  24.7724  25.0856  27.7902
    27.9759  28.5187  29.9223  30.9041  32.7908  33.4602  35.3899  36.8414
    39.2807  40.0462

          k = 0.2000 0.2000 0.0000 (   963 PWs)   bands (ev):

   -24.4363  -7.0978  -7.0512  -6.4444   8.7261  10.2844  11.1255  13.3915
    14.9044  15.3552  19.4596  20.0009  22.4809  24.1773  24.7787  27.4124
    28.3647  28.6619  29.9793  31.0119  32.9383  33.1142  35.1223  36.6139
    38.9510  39.7543

          k = 0.1750 0.1750 0.0000 (   961 PWs)   bands (ev):

   -24.4613  -6.9925  -6.9507  -6.4662   8.4703  10.1058  10.7375  13.8217
    15.1236  15.5625  19.6966  20.0998  22.5310  23.5412  24.5355  26.8858
    28.3562  29.0478  29.5969  31.4901  32.2041  33.5845  35.6116  36.4271
    38.6415  39.4908

          k = 0.1500 0.1500 0.0000 (   963 PWs)   bands (ev):

   -24.4844  -6.8910  -6.8557  -6.4863   8.2114   9.9198  10.3894  14.3235
    15.3611  15.7667  19.9261  20.1932  22.6676  22.9154  24.3676  26.4024
    27.8006  29.0293  29.7815  31.1063  32.2787  34.4731  36.2911  36.3460
    38.3637  39.2624

          k = 0.1250 0.1250 0.0000 (   957 PWs)   bands (ev):

   -24.5049  -6.7967  -6.7691  -6.5043   7.9628   9.7516  10.0859  14.8502
    15.6108  15.9611  20.1364  20.2776  22.3244  22.8988  24.2847  25.9700
    27.1666  28.4123  30.0467  30.5293  33.1603  35.4664  36.2209  37.1480
    38.1237  39.0750

          k = 0.1000 0.1000 0.0000 (   963 PWs)   bands (ev):

   -24.5224  -6.7132  -6.6937  -6.5197   7.7382   9.6114   9.8312  15.3620
    15.8631  16.1380  20.3157  20.3582  21.7864  23.2224  24.2936  25.5971
    26.5333  27.7993  29.0262  31.2535  34.1154  36.2398  36.5044  37.9249
    37.9521  38.9399

          k = 0.0750 0.0750 0.0000 (   961 PWs)   bands (ev):

   -24.5364  -6.6438  -6.6320  -6.5320   7.5501   9.5024   9.6290  15.8202
    16.1031  16.2888  20.4419  20.4559  21.3211  23.6291  24.3938  25.2932
    25.9502  27.2186  28.0719  31.9047  35.1057  36.3826  37.5204  37.7691
    38.6702  38.9035

          k = 0.0500 0.0500 0.0000 (   953 PWs)   bands (ev):

   -24.5467  -6.5917  -6.5861  -6.5411   7.4084   9.4250   9.4823  16.1852
    16.3087  16.4046  20.5279  20.5535  20.9531  24.1018  24.5701  25.0675
    25.4657  26.6975  27.2063  32.4212  36.0959  36.6891  37.6572  38.2311
    38.9707  39.2371

          k = 0.0250 0.0250 0.0000 (   949 PWs)   bands (ev):

   -24.5530  -6.5594  -6.5580  -6.5466   7.3204   9.3789   9.3933  16.4212
    16.4513  16.4778  20.5995  20.6100  20.7127  24.5942  24.7742  24.9283
    25.1370  26.2872  26.4776  32.7480  37.0189  37.1666  37.5899  38.3909
    38.7274  38.9426

          k = 0.0000 0.0000 0.0000 (   949 PWs)   bands (ev):

   -24.5551  -6.5484  -6.5484  -6.5484   7.2906   9.3635   9.3635  16.5029
    16.5029  16.5029  20.6284  20.6284  20.6284  24.8812  24.8812  24.8812
    25.0191  26.1118  26.1118  32.8583  37.5675  37.5675  37.5675  38.4071
    38.4071  38.4071

          k = 0.0250 0.0250 0.0250 (   949 PWs)   bands (ev):

   -24.5519  -6.5592  -6.5570  -6.5570   7.3353   9.3974   9.3974  16.3975
    16.4368  16.4368  20.6351  20.6528  20.6528  24.6213  24.6213  24.9046
    25.1967  26.5053  26.5053  32.6902  36.8075  37.2907  37.2907  38.6835
    38.6835  39.0171

          k = 0.0500 0.0500 0.0500 (   958 PWs)   bands (ev):

   -24.5425  -6.5907  -6.5824  -6.5824   7.4678   9.4982   9.4982  16.1063
    16.2428  16.2428  20.6610  20.7247  20.7247  24.2248  24.2248  24.9749
    25.6985  27.2979  27.2979  32.1660  35.8642  36.8399  36.8399  38.6342
    38.6342  39.6004

          k = 0.0750 0.0750 0.0750 (   964 PWs)   bands (ev):

   -24.5271  -6.6410  -6.6235  -6.6235   7.6824   9.6643   9.6643  15.6885
    15.9341  15.9341  20.7143  20.8409  20.8409  23.9252  23.9252  25.0918
    26.4540  28.2408  28.2408  31.2926  35.1585  36.4046  36.4046  37.6781
    37.6781  39.8332

          k = 0.1000 0.1000 0.1000 (   964 PWs)   bands (ev):

   -24.5061  -6.7071  -6.6785  -6.6785   7.9695   9.8924   9.8924  15.2098
    15.5314  15.5314  20.7966  20.9969  20.9969  23.7632  23.7632  25.2554
    27.3876  29.2627  29.2627  30.1814  34.6879  36.0050  36.0050  36.6535
    36.6535  39.5616

          k = 0.1250 0.1250 0.1250 (   958 PWs)   bands (ev):

   -24.4799  -6.7852  -6.7453  -6.7453   8.3141  10.1779  10.1779  14.7282
    15.0613  15.0613  20.9014  21.1879  21.1879  23.7402  23.7402  25.4653
    28.3734  29.0361  30.3061  30.3061  34.3800  35.5033  35.5033  35.8537
    35.8537  39.0069

          k = 0.1500 0.1500 0.1500 (   952 PWs)   bands (ev):

   -24.4493  -6.8716  -6.8212  -6.8212   8.6935  10.5141  10.5141  14.2945
    14.5524  14.5524  21.0137  21.4101  21.4101  23.8452  23.8452  25.7213
    27.6812  29.6290  31.2508  31.2508  34.1969  34.7603  34.7603  35.5410
    35.5410  38.3632

          k = 0.1750 0.1750 0.1750 (   952 PWs)   bands (ev):

   -24.4150  -6.9625  -6.9037  -6.9037   9.0738  10.8897  10.8897  13.9591
    14.0353  14.0353  21.1054  21.6602  21.6602  24.0631  24.0631  26.0228
    26.5388  30.7261  31.7473  31.7473  34.1487  34.4103  34.4103  35.4246
    35.4246  37.7139

          k = 0.2000 0.2000 0.2000 (   952 PWs)   bands (ev):

   -24.3778  -7.0543  -6.9901  -6.9901   9.4075  11.2810  11.2810  13.5487
    13.5487  13.7784  21.1226  21.9357  21.9357  24.3770  24.3770  25.5316
    26.3693  31.4449  31.4449  31.6813  34.2814  34.6226  34.6226  35.6753
    35.6753  37.1516

          k = 0.2250 0.2250 0.2250 (   958 PWs)   bands (ev):

   -24.3387  -7.1442  -7.0778  -7.0778   9.6423  11.6187  11.6187  13.1729
    13.1729  13.8080  20.9740  22.2334  22.2334  24.7683  24.7683  24.7729
    26.7599  30.7290  30.7290  32.3171  34.5201  34.7457  34.7457  36.5378
    36.5378  36.9170

          k = 0.2500 0.2500 0.2500 (   958 PWs)   bands (ev):

   -24.2986  -7.2297  -7.1644  -7.1644   9.7499  11.7146  11.7146  13.1036
    13.1036  14.0759  20.5687  22.5476  22.5476  24.3628  25.2132  25.2132
    27.1935  29.9303  29.9303  32.6467  34.4265  34.7741  34.7741  37.4204
    37.6204  37.6204

          k = 0.2750 0.2750 0.2750 (   967 PWs)   bands (ev):

   -24.2585  -7.3092  -7.2480  -7.2480   9.7485  11.4858  11.4858  13.4286
    13.4286  14.5604  19.9244  22.8676  22.8676  24.2896  25.6719  25.6719
    27.6686  29.1785  29.1785  32.8337  33.9483  34.8015  34.8015  38.4220
    38.4220  38.4695

          k = 0.3000 0.3000 0.3000 (   973 PWs)   bands (ev):

   -24.2194  -7.3813  -7.3267  -7.3267   9.6840  11.1324  11.1324  13.9506
    13.9506  15.2086  19.1532  23.1714  23.1714  24.4453  26.0571  26.0571
    28.1829  28.5992  28.5992  32.9835  33.3287  34.8241  34.8241  38.3610
    38.3610  38.8052

          k = 0.3250 0.3250 0.3250 (   961 PWs)   bands (ev):

   -24.1822  -7.4452  -7.3990  -7.3990   9.5989  10.7692  10.7692  14.5563
    14.5563  15.9671  18.3538  23.4114  23.4114  24.7345  26.2040  26.2040
    28.4009  28.4009  28.7334  32.6677  33.1370  34.7840  34.7840  37.7279
    37.8801  37.8801

          k = 0.3500 0.3500 0.3500 (   964 PWs)   bands (ev):

   -24.1480  -7.5006  -7.4637  -7.4637   9.5208  10.4326  10.4326  15.2093
    15.2093  16.7903  17.5865  23.4934  23.4934  25.1011  26.1059  26.1059
    28.6713  28.6713  29.3148  32.0000  33.2970  34.5794  34.5794  36.5264
    37.5408  37.5408

          k = 0.3750 0.3750 0.3750 (   970 PWs)   bands (ev):

   -24.1174  -7.5473  -7.5199  -7.5199   9.4636  10.1369  10.1369  15.8942
    15.8942  16.8739  17.6525  23.3015  23.3015  25.5117  26.0617  26.0617
    29.2061  29.2061  29.9195  31.3412  33.4215  34.1569  34.1569  35.4352
    37.5241  37.5241

          k = 0.4000 0.4000 0.4000 (   973 PWs)   bands (ev):

   -24.0914  -7.5852  -7.5667  -7.5667   9.4314   9.8890   9.8890  16.2602
    16.6009  16.6009  18.4947  22.8346  22.8346  25.9411  26.2135  26.2135
    29.8312  29.8312  30.5335  30.7060  33.3134  33.5983  33.5983  34.6971
    37.7835  37.7835

          k = 0.4250 0.4250 0.4250 (   967 PWs)   bands (ev):

   -24.0704  -7.6144  -7.6036  -7.6036   9.4213   9.6930   9.6930  15.7534
    17.3185  17.3185  19.2803  22.2072  22.2072  26.3617  26.4886  26.4886
    30.1185  30.4523  30.4523  31.1330  32.7433  33.0288  33.0288  34.5682
    38.0592  38.0592

          k = 0.4500 0.4500 0.4500 (   955 PWs)   bands (ev):

   -24.0550  -7.6351  -7.6302  -7.6302   9.4253   9.5514   9.5514  15.3739
    18.0273  18.0273  19.9424  21.5247  21.5247  26.7345  26.7842  26.7842
    29.6231  30.9832  30.9832  31.6729  32.0703  32.5566  32.5566  34.7106
    37.6731  37.6731

          k = 0.4750 0.4750 0.4750 (   968 PWs)   bands (ev):

   -24.0456  -7.6476  -7.6463  -7.6463   9.4335   9.4659   9.4659  15.1380
    18.6678  18.6678  20.3971  20.8882  20.8882  27.0009  27.0121  27.0121
    29.2860  31.3110  31.3110  31.5778  32.0737  32.2863  32.2863  34.8624
    37.2300  37.2300

          k = 0.5000 0.5000 0.5000 (   968 PWs)   bands (ev):

   -24.0425  -7.6517  -7.6517  -7.6517   9.4373   9.4373   9.4373  15.0579
    18.9947  18.9947  20.5611  20.5611  20.5611  27.0987  27.0987  27.0987
    29.1671  31.3963  31.3963  31.3963  32.2271  32.2271  32.2271  34.9241
    37.0600  37.0600

     Writing all to output data dir ./work/POSCAR.save/

     init_run     :      0.16s CPU      0.19s WALL (       1 calls)
     electrons    :      3.16s CPU      3.44s WALL (       1 calls)

     Called by init_run:
     wfcinit      :      0.00s CPU      0.01s WALL (       1 calls)
     potinit      :      0.06s CPU      0.08s WALL (       1 calls)
     hinit0       :      0.08s CPU      0.08s WALL (       1 calls)

     Called by electrons:
     c_bands      :      3.16s CPU      3.44s WALL (       1 calls)
     v_of_rho     :      0.00s CPU      0.00s WALL (       1 calls)
     newd         :      0.00s CPU      0.00s WALL (       1 calls)
     PAW_pot      :      0.03s CPU      0.04s WALL (       1 calls)

     Called by c_bands:
     init_us_2    :      0.00s CPU      0.00s WALL (      91 calls)
     init_us_2:cp :      0.00s CPU      0.00s WALL (      91 calls)
     cegterg      :      2.93s CPU      2.97s WALL (     119 calls)

     Called by *egterg:
     cdiaghg      :      1.10s CPU      1.11s WALL (    1752 calls)
     h_psi        :      1.49s CPU      1.51s WALL (    1871 calls)
     s_psi        :      0.02s CPU      0.02s WALL (    1871 calls)
     g_psi        :      0.02s CPU      0.02s WALL (    1661 calls)

     Called by h_psi:
     h_psi:calbec :      0.07s CPU      0.08s WALL (    1871 calls)
     vloc_psi     :      1.38s CPU      1.40s WALL (    1871 calls)
     add_vuspsi   :      0.02s CPU      0.02s WALL (    1871 calls)

     General routines
     calbec       :      0.07s CPU      0.07s WALL (    1871 calls)
     fft          :      0.05s CPU      0.05s WALL (      13 calls)
     ffts         :      0.03s CPU      0.03s WALL (       1 calls)
     fftw         :      1.26s CPU      1.28s WALL (   51820 calls)
     interpolate  :      0.03s CPU      0.03s WALL (       1 calls)
     davcio       :      0.01s CPU      0.17s WALL (     182 calls)

     Parallel routines

     PWSCF        :      3.70s CPU      4.77s WALL


   This run was terminated on:  22:40:46  15May2024            

=------------------------------------------------------------------------------=
   JOB DONE.
=------------------------------------------------------------------------------=
