
     Program PWSCF v.7.1 starts on 15May2024 at 22:40:38 

     This program is part of the open-source Quantum ESPRESSO suite
     for quantum simulation of materials; please cite
         "P. Giannozzi et al., J. Phys.:Condens. Matter 21 395502 (2009);
         "P. Giannozzi et al., J. Phys.:Condens. Matter 29 465901 (2017);
         "P. Giannozzi et al., J. Chem. Phys. 152 154105 (2020);
          URL http://www.quantum-espresso.org", 
     in publications or presentations arising from this work. More details at
     http://www.quantum-espresso.org/quote

     Parallel version (MPI & OpenMP), running on      10 processor cores
     Number of MPI processes:                10
     Threads/MPI process:                     1

     MPI processes distributed on     1 nodes
     14555 MiB available memory on the printing compute node when the environment starts

     Waiting for input...
     Reading input from standard input

     Current dimensions of program PWSCF are:
     Max number of different atomic species (ntypx) = 10
     Max number of k-points (npk) =  40000
     Max angular momentum in pseudopotentials (lmaxx) =  4
     file Ce.pbe-spdn-kjpaw_psl.1.0.0.UPF: wavefunction(s)  5D renormalized
     Message from routine setup:
     using ibrav=0 with symmetry is DISCOURAGED, use correct ibrav instead

     R & G space division:  proc/nbgrp/npool/nimage =      10
     Subspace diagonalization in iterative solution of the eigenvalue problem:
     a serial algorithm will be used


     Parallelization info
     --------------------
     sticks:   dense  smooth     PW     G-vecs:    dense   smooth      PW
     Min          57      47     14                 1025      768     134
     Max          59      49     15                 1026      770     137
     Sum         577     481    145                10251     7689    1357

     Using Slab Decomposition



     bravais-lattice index     =            0
     lattice parameter (alat)  =       6.3239  a.u.
     unit-cell volume          =     252.8982 (a.u.)^3
     number of atoms/cell      =            1
     number of atomic types    =            1
     number of electrons       =        11.00
     number of Kohn-Sham states=           26
     kinetic-energy cutoff     =      37.0000  Ry
     charge density cutoff     =     179.0000  Ry
     scf convergence threshold =      7.3E-05
     mixing beta               =       0.7000
     number of iterations used =            8  plain     mixing
     Exchange-correlation= SLA  PW   PBX  PBC
                           (   1   4   3   4   0   0   0)

     celldm(1)=   6.323855  celldm(2)=   0.000000  celldm(3)=   0.000000
     celldm(4)=   0.000000  celldm(5)=   0.000000  celldm(6)=   0.000000

     crystal axes: (cart. coord. in units of alat)
               a(1) = (   1.000000   0.000000   0.000000 )  
               a(2) = (   0.000000   1.000000   0.000000 )  
               a(3) = (   0.000000   0.000000   1.000000 )  

     reciprocal axes: (cart. coord. in units 2 pi/alat)
               b(1) = (  1.000000  0.000000  0.000000 )  
               b(2) = (  0.000000  1.000000  0.000000 )  
               b(3) = (  0.000000  0.000000  1.000000 )  


     PseudoPot. # 1 for Ce read from file:
     ./../../../../pseudo/psl100_PBE/Ce.pbe-spdn-kjpaw_psl.1.0.0.UPF
     MD5 check sum: 1a25380276e46fcecd5a173acdad072c
     Pseudo is Projector augmented-wave + core cor, Zval = 11.0
     Generated using 'atomic' code by A. Dal Corso  v.7.2
     Shape of augmentation charge: PSQ
     Using radial grid of 1255 points,  6 beta functions with: 
                l(1) =   0
                l(2) =   0
                l(3) =   1
                l(4) =   1
                l(5) =   2
                l(6) =   2
     Q(r) pseudized with 0 coefficients 


     atomic species   valence    mass     pseudopotential
        Ce            11.00   140.11600     Ce( 1.00)

     48 Sym. Ops., with inversion, found



   Cartesian axes

     site n.     atom                  positions (alat units)
         1           Ce  tau(   1) = (   0.0000000   0.0000000   0.0000000  )

     number of k points=    35  Methfessel-Paxton smearing, width (Ry)=  0.0200
                       cart. coord. in units 2pi/alat
        k(    1) = (   0.0000000   0.0000000   0.0000000), wk =   0.0027435
        k(    2) = (   0.0000000   0.0000000   0.1111111), wk =   0.0164609
        k(    3) = (   0.0000000   0.0000000   0.2222222), wk =   0.0164609
        k(    4) = (   0.0000000   0.0000000   0.3333333), wk =   0.0164609
        k(    5) = (   0.0000000   0.0000000   0.4444444), wk =   0.0164609
        k(    6) = (   0.0000000   0.1111111   0.1111111), wk =   0.0329218
        k(    7) = (   0.0000000   0.1111111   0.2222222), wk =   0.0658436
        k(    8) = (   0.0000000   0.1111111   0.3333333), wk =   0.0658436
        k(    9) = (   0.0000000   0.1111111   0.4444444), wk =   0.0658436
        k(   10) = (   0.0000000   0.2222222   0.2222222), wk =   0.0329218
        k(   11) = (   0.0000000   0.2222222   0.3333333), wk =   0.0658436
        k(   12) = (   0.0000000   0.2222222   0.4444444), wk =   0.0658436
        k(   13) = (   0.0000000   0.3333333   0.3333333), wk =   0.0329218
        k(   14) = (   0.0000000   0.3333333   0.4444444), wk =   0.0658436
        k(   15) = (   0.0000000   0.4444444   0.4444444), wk =   0.0329218
        k(   16) = (   0.1111111   0.1111111   0.1111111), wk =   0.0219479
        k(   17) = (   0.1111111   0.1111111   0.2222222), wk =   0.0658436
        k(   18) = (   0.1111111   0.1111111   0.3333333), wk =   0.0658436
        k(   19) = (   0.1111111   0.1111111   0.4444444), wk =   0.0658436
        k(   20) = (   0.1111111   0.2222222   0.2222222), wk =   0.0658436
        k(   21) = (   0.1111111   0.2222222   0.3333333), wk =   0.1316872
        k(   22) = (   0.1111111   0.2222222   0.4444444), wk =   0.1316872
        k(   23) = (   0.1111111   0.3333333   0.3333333), wk =   0.0658436
        k(   24) = (   0.1111111   0.3333333   0.4444444), wk =   0.1316872
        k(   25) = (   0.1111111   0.4444444   0.4444444), wk =   0.0658436
        k(   26) = (   0.2222222   0.2222222   0.2222222), wk =   0.0219479
        k(   27) = (   0.2222222   0.2222222   0.3333333), wk =   0.0658436
        k(   28) = (   0.2222222   0.2222222   0.4444444), wk =   0.0658436
        k(   29) = (   0.2222222   0.3333333   0.3333333), wk =   0.0658436
        k(   30) = (   0.2222222   0.3333333   0.4444444), wk =   0.1316872
        k(   31) = (   0.2222222   0.4444444   0.4444444), wk =   0.0658436
        k(   32) = (   0.3333333   0.3333333   0.3333333), wk =   0.0219479
        k(   33) = (   0.3333333   0.3333333   0.4444444), wk =   0.0658436
        k(   34) = (   0.3333333   0.4444444   0.4444444), wk =   0.0658436
        k(   35) = (   0.4444444   0.4444444   0.4444444), wk =   0.0219479

     Dense  grid:    10251 G-vectors     FFT dimensions: (  27,  27,  27)

     Smooth grid:     7689 G-vectors     FFT dimensions: (  25,  25,  25)

     Estimated max dynamical RAM per process >       5.97 MB

     Estimated total dynamical RAM >      59.71 MB

     Initial potential from superposition of free atoms

     starting charge      10.9735, renormalised to      11.0000
     Starting wfcs are   13 randomized atomic wfcs +   13 random wfcs
     Checking if some PAW data can be deallocated... 

     total cpu time spent up to now is        0.5 secs

     per-process dynamical memory:    13.7 Mb

     Self-consistent Calculation

     iteration #  1     ecut=    37.00 Ry     beta= 0.70
     Davidson diagonalization with overlap
     ethr =  1.00E-02,  avg # of iterations =  6.9

     Threshold (ethr) on eigenvalues was too large:
     Diagonalizing with lowered threshold

     Davidson diagonalization with overlap
     ethr =  4.73E-05,  avg # of iterations =  4.1

     total cpu time spent up to now is        1.3 secs

     total energy              =    -471.69939944 Ry
     estimated scf accuracy    <       0.00538693 Ry

     iteration #  2     ecut=    37.00 Ry     beta= 0.70
     Davidson diagonalization with overlap
     ethr =  4.90E-05,  avg # of iterations =  1.6

     total cpu time spent up to now is        1.5 secs

     total energy              =    -471.70060186 Ry
     estimated scf accuracy    <       0.00032303 Ry

     iteration #  3     ecut=    37.00 Ry     beta= 0.70
     Davidson diagonalization with overlap
     ethr =  2.94E-06,  avg # of iterations =  2.4

     total cpu time spent up to now is        1.8 secs

     End of self-consistent calculation

          k = 0.0000 0.0000 0.0000 (   949 PWs)   bands (ev):

   -24.5493  -6.5444  -6.5444  -6.5444   7.2897   9.3635   9.3635  16.5043
    16.5043  16.5043  20.6259  20.6259  20.6259  24.8785  24.8785  24.8785
    25.0242  26.1120  26.1120  32.8569  37.5645  37.5645  37.5645  38.4097
    38.4097  38.4097

          k = 0.0000 0.0000 0.1111 (   965 PWs)   bands (ev):

   -24.5292  -6.7526  -6.5268  -6.5268   7.5597   9.4412   9.7326  15.8445
    15.8445  16.5470  19.6368  21.2973  21.2973  22.9948  25.3590  25.3590
    25.6092  27.0038  28.3546  32.0068  35.4774  35.4774  36.4501  37.4057
    38.8052  40.3871

          k = 0.0000 0.0000 0.2222 (   964 PWs)   bands (ev):

   -24.4777  -7.2440  -6.4815  -6.4815   8.1632   9.6511  10.7664  14.6986
    14.6986  16.6585  18.2095  21.0299  22.3658  22.3658  25.9130  26.8292
    26.8292  29.4941  30.6052  31.4014  32.3456  33.4803  33.4803  35.3542
    41.0857  41.0863

          k = 0.0000 0.0000 0.3333 (   972 PWs)   bands (ev):

   -24.4181  -7.7532  -6.4292  -6.4292   8.8503   9.9176  11.7995  13.7651
    13.7651  16.7921  17.8216  19.5702  23.1831  23.1831  25.3994  28.6923
    28.6923  29.1823  29.4804  31.3918  32.5147  32.5147  34.6633  35.1129
    41.0464  41.0467

          k = 0.0000 0.0000 0.4444 (   952 PWs)   bands (ev):

   -24.3784  -8.0628  -6.3945  -6.3945   9.4164  10.1122  11.9768  13.2620
    13.2620  16.8837  18.7747  19.2241  22.9547  23.6727  23.6727  28.6326
    28.8715  29.2515  29.2515  31.0273  33.9289  33.9289  37.8235  38.0439
    38.2573  38.2573

          k = 0.0000 0.1111 0.1111 (   963 PWs)   bands (ev):

   -24.5092  -6.7449  -6.7218  -6.5092   7.8335   9.6700   9.9382  15.1391
    15.7521  16.0632  20.2385  20.3222  22.0162  23.0664  24.2759  25.7527
    26.8146  28.0686  29.4724  30.9353  33.6851  36.0415  36.2188  37.5990
    38.0051  38.9940

          k = 0.0000 0.1111 0.2222 (   957 PWs)   bands (ev):

   -24.4579  -7.2220  -6.6835  -6.4642   8.4289   9.9359  10.8731  14.0246
    14.7466  16.0815  18.7803  21.2033  21.6203  23.2059  25.6229  27.0353
    27.4730  29.4017  30.0638  31.8306  32.1562  32.5672  34.9855  37.2451
    37.4468  40.0789

          k = 0.0000 0.1111 0.3333 (   962 PWs)   bands (ev):

   -24.3984  -7.7280  -6.6269  -6.4122   9.0965  10.2149  11.5386  13.6327
    13.8305  16.2335  18.1396  20.2440  21.9522  24.0836  26.3047  27.5854
    27.6259  29.5869  29.6968  31.0115  33.0997  33.8109  34.7253  36.6287
    37.7978  40.8705

          k = 0.0000 0.1111 0.4444 (   951 PWs)   bands (ev):

   -24.3589  -8.0360  -6.5893  -6.3778   9.6783  10.4613  11.1627  13.3325
    13.8118  16.3422  19.1637  19.5376  22.3462  23.5348  24.6227  26.9393
    27.6953  29.8567  31.2090  32.3756  33.6090  34.1972  36.1844  36.9308
    38.4314  38.9817

          k = 0.0000 0.2222 0.2222 (   957 PWs)   bands (ev):

   -24.4070  -7.1882  -7.1394  -6.4199   8.9401  10.3992  11.4997  13.1190
    14.7280  15.1735  19.2503  19.9177  22.4954  24.7107  25.0463  27.8427
    27.9103  28.5565  29.9559  30.9049  32.7768  33.4565  35.3130  36.8154
    39.2413  40.0152

          k = 0.0000 0.2222 0.3333 (   956 PWs)   bands (ev):

   -24.3481  -7.6634  -7.0962  -6.3689   9.4174  10.3596  11.9621  13.6213
    14.0018  15.1851  18.5202  20.3996  21.8934  25.2857  26.0475  27.0378
    27.3222  28.3770  29.9945  31.7334  32.7593  34.9773  36.1969  37.5357
    38.1838  40.2992

          k = 0.0000 0.2222 0.4444 (   957 PWs)   bands (ev):

   -24.3090  -7.9669  -7.0524  -6.3352   9.7213  10.1782  11.9358  13.5216
    14.4476  15.3081  19.0229  20.9383  21.5102  23.4757  25.0423  26.2665
    27.0008  30.7513  32.3018  32.6882  32.9988  34.6299  35.2121  36.7121
    39.0154  39.3352

          k = 0.0000 0.3333 0.3333 (   946 PWs)   bands (ev):

   -24.2898  -7.6041  -7.5696  -6.3189   9.1960  10.2661  13.6079  13.8855
    14.1259  14.3869  18.4550  19.9757  22.6788  24.3726  25.9965  26.6247
    27.8294  28.9611  29.1514  30.7216  35.5186  35.6533  36.5425  38.0548
    39.8701  40.0275

          k = 0.0000 0.3333 0.4444 (   957 PWs)   bands (ev):

   -24.2512  -7.8862  -7.5361  -6.2859   8.8173  10.4743  13.7585  13.8928
    14.4230  14.9671  18.5582  20.9352  22.2883  23.3373  23.7071  26.5558
    27.8551  29.9725  30.2703  33.3310  33.4711  36.0845  36.5019  38.6084
    39.0891  39.8935

          k = 0.0000 0.4444 0.4444 (   970 PWs)   bands (ev):

   -24.2129  -7.8347  -7.8296  -6.2534   8.2946  10.7319  13.9151  13.9518
    15.2963  15.3157  18.5286  21.5222  21.9190  22.9705  23.2602  24.8285
    28.0664  30.2718  32.0648  33.1289  33.8503  36.3635  37.1472  37.2174
    39.3674  39.5236

          k = 0.1111 0.1111 0.1111 (   964 PWs)   bands (ev):

   -24.4893  -6.7367  -6.7030  -6.7030   8.1161  10.0126  10.0126  14.9932
    15.3296  15.3296  20.8421  21.0763  21.0763  23.7346  23.7346  25.3404
    27.8406  29.6528  29.7277  29.7278  34.5354  35.8217  35.8217  36.2380
    36.2380  39.3353

          k = 0.1111 0.1111 0.2222 (   959 PWs)   bands (ev):

   -24.4381  -7.2002  -6.6747  -6.6549   8.7120  10.2162  10.9611  14.0866
    14.0999  15.4140  19.5132  21.7303  21.8672  22.7540  25.4441  26.4316
    27.8966  28.8172  31.0040  32.2377  32.8054  33.3681  33.9887  36.5051
    38.0824  38.9876

          k = 0.1111 0.1111 0.3333 (   959 PWs)   bands (ev):

   -24.3789  -7.7031  -6.6179  -6.5994   9.3687  10.4866  11.4414  13.0646
    14.1708  15.6027  18.6886  20.7174  22.3190  23.5789  25.8573  26.9200
    28.4171  28.7479  30.4579  32.1316  32.3549  34.4445  34.8382  37.5789
    37.7393  39.0030

          k = 0.1111 0.1111 0.4444 (   953 PWs)   bands (ev):

   -24.3395  -8.0094  -6.5802  -6.5626  10.0279  10.7044  10.9314  12.4841
    14.8143  15.7406  19.3925  20.0068  22.4920  24.0241  24.1073  25.1712
    29.4984  30.0128  31.0159  32.7804  33.2114  35.0076  35.5827  37.1242
    37.2189  38.7589

          k = 0.1111 0.2222 0.2222 (   956 PWs)   bands (ev):

   -24.3874  -7.1667  -7.1183  -6.6166   9.2227  10.6935  11.5357  13.1723
    14.2136  14.3968  20.3189  20.5845  22.7043  23.9011  25.0839  26.4161
    27.0374  30.1513  30.4446  32.1447  33.1852  33.7454  35.3882  36.0493
    37.1220  38.6264

          k = 0.1111 0.2222 0.3333 (   961 PWs)   bands (ev):

   -24.3287  -7.6391  -7.0755  -6.5616   9.6244  10.7103  11.9719  12.7890
    14.4251  14.5711  19.3619  21.1145  22.1182  23.9622  25.7202  26.9652
    27.7218  29.0066  29.7363  32.0779  33.4865  34.8124  36.0466  37.7273
    38.2714  39.3454

          k = 0.1111 0.2222 0.4444 (   958 PWs)   bands (ev):

   -24.2898  -7.9410  -7.0322  -6.5252   9.7889  10.6773  11.9734  12.2910
    14.7072  15.6692  19.4786  21.4408  21.6375  23.0840  24.3671  26.1640
    28.1412  30.9774  31.6861  32.2753  33.7681  34.3344  35.0757  37.2496
    38.2251  38.5668

          k = 0.1111 0.3333 0.3333 (   967 PWs)   bands (ev):

   -24.2707  -7.5803  -7.5465  -6.5080   9.2923  10.7457  12.8741  12.8756
    14.4642  14.8920  19.4632  20.3608  22.1492  24.1455  26.1094  27.7373
    27.9033  28.2284  29.6397  29.9281  35.8777  36.8143  36.8189  37.3395
    38.3720  38.4587

          k = 0.1111 0.3333 0.4444 (   957 PWs)   bands (ev):

   -24.2321  -7.8612  -7.5132  -6.4725   8.9153  10.9973  12.4919  13.0307
    14.8108  16.2359  19.2364  20.6396  21.7862  23.3306  24.5705  27.5458
    27.6616  29.4576  30.4166  32.5585  33.5653  35.6300  37.1489  38.3893
    38.4549  39.2869

          k = 0.1111 0.4444 0.4444 (   972 PWs)   bands (ev):

   -24.1939  -7.8103  -7.8053  -6.4376   8.4051  11.2923  12.6878  12.6968
    16.4458  16.6195  18.8720  19.9995  22.0710  23.4855  24.4700  24.9006
    28.6065  30.3606  32.1659  32.4674  33.0976  36.3324  36.3626  36.4961
    38.8508  39.7887

          k = 0.2222 0.2222 0.2222 (   958 PWs)   bands (ev):

   -24.3372  -7.1307  -7.0643  -7.0643   9.6222  11.5885  11.5885  13.2041
    13.2041  13.7922  21.0052  22.1996  22.1996  24.7195  24.7195  24.8394
    26.7118  30.8169  30.8169  32.2657  34.5018  34.7399  34.7399  36.4221
    36.4221  36.9141

          k = 0.2222 0.2222 0.3333 (   958 PWs)   bands (ev):

   -24.2790  -7.5769  -7.0409  -7.0017   9.7634  11.4380  11.7761  12.5225
    13.6855  14.8637  20.2448  21.5778  22.9191  23.9447  24.6989  27.1133
    27.9714  28.0261  30.9889  32.0049  33.3728  34.8725  36.5079  37.3688
    38.3402  38.3540

          k = 0.2222 0.2222 0.4444 (   966 PWs)   bands (ev):

   -24.2404  -7.8746  -6.9980  -6.9602   9.7272  11.1345  11.6569  12.4130
    13.9410  16.8227  19.8701  20.7348  22.5437  23.8136  24.7156  25.2835
    29.8927  30.4360  30.8348  31.9060  33.1668  34.8433  35.5348  36.1681
    36.6555  40.6323

          k = 0.2222 0.3333 0.3333 (   964 PWs)   bands (ev):

   -24.2214  -7.5194  -7.4870  -6.9584   9.4996  11.1413  11.6451  12.8812
    14.6079  15.4948  19.4508  21.4987  23.3113  24.0890  26.3691  26.5167
    28.0661  28.8390  29.0381  31.2707  34.4397  35.1138  36.4986  37.0911
    38.5277  38.8912

          k = 0.2222 0.3333 0.4444 (   967 PWs)   bands (ev):

   -24.1832  -7.7971  -7.4545  -6.9175   9.1725  10.9838  11.5061  12.9523
    15.1339  17.5160  18.8377  20.5807  23.3006  23.9610  25.1032  26.7045
    28.8653  29.5540  30.9960  31.4018  33.7064  34.2844  34.7528  36.8561
    38.1336  39.3976

          k = 0.2222 0.4444 0.4444 (   970 PWs)   bands (ev):

   -24.1453  -7.7476  -7.7428  -6.8774   8.7140  11.1317  11.2204  13.0068
    17.3507  17.9052  18.2116  19.9783  23.1622  24.2525  24.7322  25.8542
    30.3437  30.5943  31.2449  31.8057  32.5099  34.5184  34.9855  35.0709
    36.8290  38.3037

          k = 0.3333 0.3333 0.3333 (   961 PWs)   bands (ev):

   -24.1644  -7.4611  -7.4179  -7.4179   9.5707  10.6521  10.6521  14.7705
    14.7705  16.2355  18.0937  23.4634  23.4634  24.8512  26.1859  26.1859
    28.4453  28.4453  28.9219  32.4446  33.1917  34.7397  34.7397  37.3231
    37.7366  37.7367

          k = 0.3333 0.3333 0.4444 (   968 PWs)   bands (ev):

   -24.1266  -7.7223  -7.3989  -7.3719   9.3730  10.1179  10.6326  14.8816
    15.6802  17.2579  18.3796  21.4882  24.7324  25.1214  25.5099  25.6146
    28.8228  30.2958  30.5770  31.9972  32.7235  33.0733  34.3153  36.2767
    36.3288  39.1020

          k = 0.3333 0.4444 0.4444 (   973 PWs)   bands (ev):

   -24.0891  -7.6746  -7.6701  -7.3397   9.1350  10.0809  10.1416  15.3573
    16.3867  17.7178  19.1142  21.1069  23.5033  25.4371  25.6055  26.4415
    30.4282  30.7088  31.1568  31.3122  32.0560  33.5396  33.7298  33.7487
    37.3246  37.5254

          k = 0.4444 0.4444 0.4444 (   955 PWs)   bands (ev):

   -24.0518  -7.6277  -7.6217  -7.6217   9.4226   9.5768   9.5768  15.4478
    17.8738  17.8738  19.8090  21.6766  21.6766  26.6617  26.7246  26.7246
    29.7205  30.8770  30.8770  31.5602  32.2095  32.6473  32.6473  34.6760
    37.7858  37.7861

     the Fermi energy is    10.5219 ev

!    total energy              =    -471.70064984 Ry
     total all-electron energy =    -17721.225379 Ry
     estimated scf accuracy    <       0.00001334 Ry
     smearing contrib. (-TS)   =       0.00019526 Ry
     internal energy E=F+TS    =    -471.70084510 Ry

     The total energy is F=E-TS. E is the sum of the following terms:
     one-electron contribution =      -7.44884228 Ry
     hartree contribution      =       8.97110176 Ry
     xc contribution           =     -73.15901036 Ry
     ewald contribution        =     -54.28856142 Ry
     one-center paw contrib.   =    -345.77553280 Ry

     convergence has been achieved in   3 iterations

     Writing all to output data dir ./work/POSCAR.save/

     init_run     :      0.23s CPU      0.24s WALL (       1 calls)
     electrons    :      1.06s CPU      1.36s WALL (       1 calls)

     Called by init_run:
     wfcinit      :      0.06s CPU      0.06s WALL (       1 calls)
     potinit      :      0.08s CPU      0.09s WALL (       1 calls)
     hinit0       :      0.08s CPU      0.08s WALL (       1 calls)

     Called by electrons:
     c_bands      :      0.86s CPU      1.12s WALL (       4 calls)
     sum_band     :      0.10s CPU      0.10s WALL (       4 calls)
     v_of_rho     :      0.00s CPU      0.00s WALL (       4 calls)
     newd         :      0.01s CPU      0.01s WALL (       4 calls)
     PAW_pot      :      0.14s CPU      0.15s WALL (       4 calls)
     mix_rho      :      0.00s CPU      0.00s WALL (       4 calls)

     Called by c_bands:
     init_us_2    :      0.01s CPU      0.01s WALL (     315 calls)
     init_us_2:cp :      0.01s CPU      0.01s WALL (     315 calls)
     cegterg      :      0.84s CPU      0.86s WALL (     140 calls)

     Called by *egterg:
     cdiaghg      :      0.27s CPU      0.28s WALL (     631 calls)
     h_psi        :      0.49s CPU      0.50s WALL (     701 calls)
     s_psi        :      0.01s CPU      0.01s WALL (     701 calls)
     g_psi        :      0.00s CPU      0.00s WALL (     526 calls)

     Called by h_psi:
     h_psi:calbec :      0.02s CPU      0.02s WALL (     701 calls)
     vloc_psi     :      0.45s CPU      0.46s WALL (     701 calls)
     add_vuspsi   :      0.01s CPU      0.01s WALL (     701 calls)

     General routines
     calbec       :      0.03s CPU      0.03s WALL (     841 calls)
     fft          :      0.06s CPU      0.06s WALL (      51 calls)
     ffts         :      0.03s CPU      0.03s WALL (       8 calls)
     fftw         :      0.48s CPU      0.50s WALL (   25368 calls)
     interpolate  :      0.03s CPU      0.03s WALL (       4 calls)

     Parallel routines

     PWSCF        :      1.43s CPU      2.22s WALL


   This run was terminated on:  22:40:41  15May2024            

=------------------------------------------------------------------------------=
   JOB DONE.
=------------------------------------------------------------------------------=
