
     Program PWSCF v.7.1 starts on 12May2024 at  9:57:58 

     This program is part of the open-source Quantum ESPRESSO suite
     for quantum simulation of materials; please cite
         "P. Giannozzi et al., J. Phys.:Condens. Matter 21 395502 (2009);
         "P. Giannozzi et al., J. Phys.:Condens. Matter 29 465901 (2017);
         "P. Giannozzi et al., J. Chem. Phys. 152 154105 (2020);
          URL http://www.quantum-espresso.org", 
     in publications or presentations arising from this work. More details at
     http://www.quantum-espresso.org/quote

     Parallel version (MPI & OpenMP), running on      10 processor cores
     Number of MPI processes:                10
     Threads/MPI process:                     1

     MPI processes distributed on     1 nodes
     14735 MiB available memory on the printing compute node when the environment starts

     Waiting for input...
     Reading input from standard input

     Current dimensions of program PWSCF are:
     Max number of different atomic species (ntypx) = 10
     Max number of k-points (npk) =  40000
     Max angular momentum in pseudopotentials (lmaxx) =  4

     Atomic positions and unit cell read from directory:
     ./work/POSCAR.save/

     file Sb.pbe-dn-kjpaw_psl.1.0.0.UPF: wavefunction(s)  5S 4D renormalized
     Message from routine setup:
     using ibrav=0 with symmetry is DISCOURAGED, use correct ibrav instead

     R & G space division:  proc/nbgrp/npool/nimage =      10
     Subspace diagonalization in iterative solution of the eigenvalue problem:
     a serial algorithm will be used


     Parallelization info
     --------------------
     sticks:   dense  smooth     PW     G-vecs:    dense   smooth      PW
     Min          68      51     16                 1203      797     140
     Max          69      52     17                 1205      800     143
     Sum         685     517    163                12039     7991    1411

     Using Slab Decomposition



     bravais-lattice index     =            0
     lattice parameter (alat)  =       6.3979  a.u.
     unit-cell volume          =     185.1826 (a.u.)^3
     number of atoms/cell      =            1
     number of atomic types    =            1
     number of electrons       =        15.00
     number of Kohn-Sham states=           12
     kinetic-energy cutoff     =      47.0000  Ry
     charge density cutoff     =     246.0000  Ry
     Exchange-correlation= SLA  PW   PBX  PBC
                           (   1   4   3   4   0   0   0)

     celldm(1)=   6.397913  celldm(2)=   0.000000  celldm(3)=   0.000000
     celldm(4)=   0.000000  celldm(5)=   0.000000  celldm(6)=   0.000000

     crystal axes: (cart. coord. in units of alat)
               a(1) = (   1.000000   0.000000   0.000000 )  
               a(2) = (   0.500000   0.866025   0.000000 )  
               a(3) = (   0.500000   0.288675   0.816497 )  

     reciprocal axes: (cart. coord. in units 2 pi/alat)
               b(1) = (  1.000000 -0.577350 -0.408248 )  
               b(2) = (  0.000000  1.154701 -0.408248 )  
               b(3) = (  0.000000  0.000000  1.224745 )  


     PseudoPot. # 1 for Sb read from file:
     ./../../../pseudo/psl100_PBE/Sb.pbe-dn-kjpaw_psl.1.0.0.UPF
     MD5 check sum: 6651b36a8f9aba3e8c5ea3ac6485aa6e
     Pseudo is Projector augmented-wave + core cor, Zval = 15.0
     Generated using 'atomic' code by A. Dal Corso  v.7.2
     Shape of augmentation charge: PSQ
     Using radial grid of 1243 points,  6 beta functions with: 
                l(1) =   0
                l(2) =   0
                l(3) =   1
                l(4) =   1
                l(5) =   2
                l(6) =   2
     Q(r) pseudized with 0 coefficients 


     atomic species   valence    mass     pseudopotential
        Sb            15.00   121.76000     Sb( 1.00)

     12 Sym. Ops., with inversion, found



   Cartesian axes

     site n.     atom                  positions (alat units)
         1           Sb  tau(   1) = (   0.0000000   0.0000000   0.0000000  )

     number of k points=   101  Methfessel-Paxton smearing, width (Ry)=  0.0200

     Number of k-points >= 100: set verbosity='high' to print them.

     Dense  grid:    12039 G-vectors     FFT dimensions: (  32,  32,  32)

     Smooth grid:     7991 G-vectors     FFT dimensions: (  27,  27,  27)

     Estimated max dynamical RAM per process >       5.18 MB

     Estimated total dynamical RAM >      51.79 MB

     Check: negative core charge=   -0.000003

     The potential is recalculated from file :
     ./work/POSCAR.save/charge-density

     Starting wfcs are    9 randomized atomic wfcs +    3 random wfcs
     Checking if some PAW data can be deallocated... 

     Band Structure Calculation
     Davidson diagonalization with overlap

     ethr =  4.87E-07,  avg # of iterations = 19.0

     total cpu time spent up to now is        2.3 secs

     End of band structure calculation

     Number of k-points >= 100: set verbosity='high' to print the bands.

     Writing all to output data dir ./work/POSCAR.save/

     init_run     :      0.24s CPU      0.27s WALL (       1 calls)
     electrons    :      1.46s CPU      1.65s WALL (       1 calls)

     Called by init_run:
     wfcinit      :      0.00s CPU      0.01s WALL (       1 calls)
     potinit      :      0.10s CPU      0.11s WALL (       1 calls)
     hinit0       :      0.13s CPU      0.13s WALL (       1 calls)

     Called by electrons:
     c_bands      :      1.46s CPU      1.65s WALL (       1 calls)
     v_of_rho     :      0.00s CPU      0.00s WALL (       1 calls)
     newd         :      0.00s CPU      0.01s WALL (       1 calls)
     PAW_pot      :      0.04s CPU      0.04s WALL (       1 calls)

     Called by c_bands:
     init_us_2    :      0.00s CPU      0.00s WALL (     101 calls)
     init_us_2:cp :      0.00s CPU      0.00s WALL (     101 calls)
     cegterg      :      1.31s CPU      1.36s WALL (     120 calls)

     Called by *egterg:
     cdiaghg      :      0.26s CPU      0.27s WALL (    2016 calls)
     h_psi        :      0.96s CPU      0.99s WALL (    2136 calls)
     s_psi        :      0.01s CPU      0.01s WALL (    2136 calls)
     g_psi        :      0.01s CPU      0.01s WALL (    1915 calls)

     Called by h_psi:
     h_psi:calbec :      0.05s CPU      0.05s WALL (    2136 calls)
     vloc_psi     :      0.89s CPU      0.92s WALL (    2136 calls)
     add_vuspsi   :      0.02s CPU      0.02s WALL (    2136 calls)

     General routines
     calbec       :      0.05s CPU      0.05s WALL (    2136 calls)
     fft          :      0.10s CPU      0.10s WALL (      13 calls)
     ffts         :      0.05s CPU      0.05s WALL (       1 calls)
     fftw         :      0.82s CPU      0.85s WALL (   21810 calls)
     interpolate  :      0.05s CPU      0.05s WALL (       1 calls)
     davcio       :      0.00s CPU      0.08s WALL (     202 calls)

     Parallel routines

     PWSCF        :      2.08s CPU      3.10s WALL


   This run was terminated on:   9:58: 1  12May2024            

=------------------------------------------------------------------------------=
   JOB DONE.
=------------------------------------------------------------------------------=
