
     Program PWSCF v.7.1 starts on 16Nov2023 at  9:30:42 

     This program is part of the open-source Quantum ESPRESSO suite
     for quantum simulation of materials; please cite
         "P. Giannozzi et al., J. Phys.:Condens. Matter 21 395502 (2009);
         "P. Giannozzi et al., J. Phys.:Condens. Matter 29 465901 (2017);
         "P. Giannozzi et al., J. Chem. Phys. 152 154105 (2020);
          URL http://www.quantum-espresso.org", 
     in publications or presentations arising from this work. More details at
     http://www.quantum-espresso.org/quote

     Parallel version (MPI & OpenMP), running on      10 processor cores
     Number of MPI processes:                10
     Threads/MPI process:                     1

     MPI processes distributed on     1 nodes
     14935 MiB available memory on the printing compute node when the environment starts

     Waiting for input...
     Reading input from standard input

     Current dimensions of program PWSCF are:
     Max number of different atomic species (ntypx) = 10
     Max number of k-points (npk) =  40000
     Max angular momentum in pseudopotentials (lmaxx) =  4

     Atomic positions and unit cell read from directory:
     ./work/POSCAR.save/

     file F.pbe-n-kjpaw_psl.1.0.0.UPF: wavefunction(s)  2S 2P renormalized
     Message from routine setup:
     using ibrav=0 with symmetry is DISCOURAGED, use correct ibrav instead

     R & G space division:  proc/nbgrp/npool/nimage =      10
     Subspace diagonalization in iterative solution of the eigenvalue problem:
     a serial algorithm will be used


     Parallelization info
     --------------------
     sticks:   dense  smooth     PW     G-vecs:    dense   smooth      PW
     Min          42      26      9                  666      322      69
     Max          44      27     11                  669      325      70
     Sum         429     261     97                 6667     3239     691

     Using Slab Decomposition



     bravais-lattice index     =            0
     lattice parameter (alat)  =       4.1347  a.u.
     unit-cell volume          =      70.6868 (a.u.)^3
     number of atoms/cell      =            1
     number of atomic types    =            1
     number of electrons       =         7.00
     number of Kohn-Sham states=            8
     kinetic-energy cutoff     =      49.0000  Ry
     charge density cutoff     =     316.0000  Ry
     Exchange-correlation= SLA  PW   PBX  PBC
                           (   1   4   3   4   0   0   0)

     celldm(1)=   4.134721  celldm(2)=   0.000000  celldm(3)=   0.000000
     celldm(4)=   0.000000  celldm(5)=   0.000000  celldm(6)=   0.000000

     crystal axes: (cart. coord. in units of alat)
               a(1) = (   1.000000   0.000000   0.000000 )  
               a(2) = (   0.000000   1.000000   0.000000 )  
               a(3) = (   0.000000   0.000000   1.000000 )  

     reciprocal axes: (cart. coord. in units 2 pi/alat)
               b(1) = (  1.000000  0.000000  0.000000 )  
               b(2) = (  0.000000  1.000000  0.000000 )  
               b(3) = (  0.000000  0.000000  1.000000 )  


     PseudoPot. # 1 for F  read from file:
     ./../../../pseudo/psl100_PBE/F.pbe-n-kjpaw_psl.1.0.0.UPF
     MD5 check sum: f1a4e9b73708756b7b23ac847c2f8178
     Pseudo is Projector augmented-wave + core cor, Zval =  7.0
     Generated using 'atomic' code by A. Dal Corso  v.7.2
     Shape of augmentation charge: PSQ
     Using radial grid of 1105 points,  4 beta functions with: 
                l(1) =   0
                l(2) =   0
                l(3) =   1
                l(4) =   1
     Q(r) pseudized with 0 coefficients 


     atomic species   valence    mass     pseudopotential
        F              7.00    18.99800     F ( 1.00)

     48 Sym. Ops., with inversion, found



   Cartesian axes

     site n.     atom                  positions (alat units)
         1           F   tau(   1) = (   0.0000000   0.0000000   0.0000000  )

     number of k points=    91  Methfessel-Paxton smearing, width (Ry)=  0.0200
                       cart. coord. in units 2pi/alat
        k(    1) = (   0.0000000   0.5000000   0.5000000), wk =   0.0219780
        k(    2) = (   0.0500000   0.5000000   0.5000000), wk =   0.0219780
        k(    3) = (   0.1000000   0.5000000   0.5000000), wk =   0.0219780
        k(    4) = (   0.1500000   0.5000000   0.5000000), wk =   0.0219780
        k(    5) = (   0.2000000   0.5000000   0.5000000), wk =   0.0219780
        k(    6) = (   0.2500000   0.5000000   0.5000000), wk =   0.0219780
        k(    7) = (   0.3000000   0.5000000   0.5000000), wk =   0.0219780
        k(    8) = (   0.3500000   0.5000000   0.5000000), wk =   0.0219780
        k(    9) = (   0.4000000   0.5000000   0.5000000), wk =   0.0219780
        k(   10) = (   0.4500000   0.5000000   0.5000000), wk =   0.0219780
        k(   11) = (   0.5000000   0.5000000   0.5000000), wk =   0.0219780
        k(   12) = (   0.4750000   0.4750000   0.4750000), wk =   0.0219780
        k(   13) = (   0.4500000   0.4500000   0.4500000), wk =   0.0219780
        k(   14) = (   0.4250000   0.4250000   0.4250000), wk =   0.0219780
        k(   15) = (   0.4000000   0.4000000   0.4000000), wk =   0.0219780
        k(   16) = (   0.3750000   0.3750000   0.3750000), wk =   0.0219780
        k(   17) = (   0.3500000   0.3500000   0.3500000), wk =   0.0219780
        k(   18) = (   0.3250000   0.3250000   0.3250000), wk =   0.0219780
        k(   19) = (   0.3000000   0.3000000   0.3000000), wk =   0.0219780
        k(   20) = (   0.2750000   0.2750000   0.2750000), wk =   0.0219780
        k(   21) = (   0.2500000   0.2500000   0.2500000), wk =   0.0219780
        k(   22) = (   0.2250000   0.2250000   0.2250000), wk =   0.0219780
        k(   23) = (   0.2000000   0.2000000   0.2000000), wk =   0.0219780
        k(   24) = (   0.1750000   0.1750000   0.1750000), wk =   0.0219780
        k(   25) = (   0.1500000   0.1500000   0.1500000), wk =   0.0219780
        k(   26) = (   0.1250000   0.1250000   0.1250000), wk =   0.0219780
        k(   27) = (   0.1000000   0.1000000   0.1000000), wk =   0.0219780
        k(   28) = (   0.0750000   0.0750000   0.0750000), wk =   0.0219780
        k(   29) = (   0.0500000   0.0500000   0.0500000), wk =   0.0219780
        k(   30) = (   0.0250000   0.0250000   0.0250000), wk =   0.0219780
        k(   31) = (   0.0000000   0.0000000   0.0000000), wk =   0.0219780
        k(   32) = (   0.0500000   0.0000000   0.0000000), wk =   0.0219780
        k(   33) = (   0.1000000   0.0000000   0.0000000), wk =   0.0219780
        k(   34) = (   0.1500000   0.0000000   0.0000000), wk =   0.0219780
        k(   35) = (   0.2000000   0.0000000   0.0000000), wk =   0.0219780
        k(   36) = (   0.2500000   0.0000000   0.0000000), wk =   0.0219780
        k(   37) = (   0.3000000   0.0000000   0.0000000), wk =   0.0219780
        k(   38) = (   0.3500000   0.0000000   0.0000000), wk =   0.0219780
        k(   39) = (   0.4000000   0.0000000   0.0000000), wk =   0.0219780
        k(   40) = (   0.4500000   0.0000000   0.0000000), wk =   0.0219780
        k(   41) = (   0.5000000   0.0000000   0.0000000), wk =   0.0219780
        k(   42) = (   0.5000000   0.0500000   0.0000000), wk =   0.0219780
        k(   43) = (   0.5000000   0.1000000   0.0000000), wk =   0.0219780
        k(   44) = (   0.5000000   0.1500000   0.0000000), wk =   0.0219780
        k(   45) = (   0.5000000   0.2000000   0.0000000), wk =   0.0219780
        k(   46) = (   0.5000000   0.2500000   0.0000000), wk =   0.0219780
        k(   47) = (   0.5000000   0.3000000   0.0000000), wk =   0.0219780
        k(   48) = (   0.5000000   0.3500000   0.0000000), wk =   0.0219780
        k(   49) = (   0.5000000   0.4000000   0.0000000), wk =   0.0219780
        k(   50) = (   0.5000000   0.4500000   0.0000000), wk =   0.0219780
        k(   51) = (   0.5000000   0.5000000   0.0000000), wk =   0.0219780
        k(   52) = (   0.4750000   0.4750000   0.0000000), wk =   0.0219780
        k(   53) = (   0.4500000   0.4500000   0.0000000), wk =   0.0219780
        k(   54) = (   0.4250000   0.4250000   0.0000000), wk =   0.0219780
        k(   55) = (   0.4000000   0.4000000   0.0000000), wk =   0.0219780
        k(   56) = (   0.3750000   0.3750000   0.0000000), wk =   0.0219780
        k(   57) = (   0.3500000   0.3500000   0.0000000), wk =   0.0219780
        k(   58) = (   0.3250000   0.3250000   0.0000000), wk =   0.0219780
        k(   59) = (   0.3000000   0.3000000   0.0000000), wk =   0.0219780
        k(   60) = (   0.2750000   0.2750000   0.0000000), wk =   0.0219780
        k(   61) = (   0.2500000   0.2500000   0.0000000), wk =   0.0219780
        k(   62) = (   0.2250000   0.2250000   0.0000000), wk =   0.0219780
        k(   63) = (   0.2000000   0.2000000   0.0000000), wk =   0.0219780
        k(   64) = (   0.1750000   0.1750000   0.0000000), wk =   0.0219780
        k(   65) = (   0.1500000   0.1500000   0.0000000), wk =   0.0219780
        k(   66) = (   0.1250000   0.1250000   0.0000000), wk =   0.0219780
        k(   67) = (   0.1000000   0.1000000   0.0000000), wk =   0.0219780
        k(   68) = (   0.0750000   0.0750000   0.0000000), wk =   0.0219780
        k(   69) = (   0.0500000   0.0500000   0.0000000), wk =   0.0219780
        k(   70) = (   0.0250000   0.0250000   0.0000000), wk =   0.0219780
        k(   71) = (   0.0000000   0.0000000   0.0000000), wk =   0.0219780
        k(   72) = (   0.0250000   0.0250000   0.0250000), wk =   0.0219780
        k(   73) = (   0.0500000   0.0500000   0.0500000), wk =   0.0219780
        k(   74) = (   0.0750000   0.0750000   0.0750000), wk =   0.0219780
        k(   75) = (   0.1000000   0.1000000   0.1000000), wk =   0.0219780
        k(   76) = (   0.1250000   0.1250000   0.1250000), wk =   0.0219780
        k(   77) = (   0.1500000   0.1500000   0.1500000), wk =   0.0219780
        k(   78) = (   0.1750000   0.1750000   0.1750000), wk =   0.0219780
        k(   79) = (   0.2000000   0.2000000   0.2000000), wk =   0.0219780
        k(   80) = (   0.2250000   0.2250000   0.2250000), wk =   0.0219780
        k(   81) = (   0.2500000   0.2500000   0.2500000), wk =   0.0219780
        k(   82) = (   0.2750000   0.2750000   0.2750000), wk =   0.0219780
        k(   83) = (   0.3000000   0.3000000   0.3000000), wk =   0.0219780
        k(   84) = (   0.3250000   0.3250000   0.3250000), wk =   0.0219780
        k(   85) = (   0.3500000   0.3500000   0.3500000), wk =   0.0219780
        k(   86) = (   0.3750000   0.3750000   0.3750000), wk =   0.0219780
        k(   87) = (   0.4000000   0.4000000   0.4000000), wk =   0.0219780
        k(   88) = (   0.4250000   0.4250000   0.4250000), wk =   0.0219780
        k(   89) = (   0.4500000   0.4500000   0.4500000), wk =   0.0219780
        k(   90) = (   0.4750000   0.4750000   0.4750000), wk =   0.0219780
        k(   91) = (   0.5000000   0.5000000   0.5000000), wk =   0.0219780

     Dense  grid:     6667 G-vectors     FFT dimensions: (  24,  24,  24)

     Smooth grid:     3239 G-vectors     FFT dimensions: (  20,  20,  20)

     Estimated max dynamical RAM per process >       1.07 MB

     Estimated total dynamical RAM >      10.72 MB

     Check: negative core charge=   -0.000004

     The potential is recalculated from file :
     ./work/POSCAR.save/charge-density

     Starting wfcs are    4 randomized atomic wfcs +    4 random wfcs
     Checking if some PAW data can be deallocated... 

     Band Structure Calculation
     Davidson diagonalization with overlap

     ethr =  1.04E-06,  avg # of iterations = 10.7

     total cpu time spent up to now is        1.0 secs

     End of band structure calculation

          k = 0.0000 0.5000 0.5000 (   388 PWs)   bands (ev):

   -20.8816  -4.3416  -4.3416  -0.1214  16.1425  26.2022  26.2022  30.0613

          k = 0.0500 0.5000 0.5000 (   400 PWs)   bands (ev):

   -20.8608  -4.3203  -4.3203  -0.2079  16.2187  26.1116  26.1116  30.2139

          k = 0.1000 0.5000 0.5000 (   396 PWs)   bands (ev):

   -20.8000  -4.2578  -4.2578  -0.4565  16.4473  25.8469  25.8469  30.6582

          k = 0.1500 0.5000 0.5000 (   396 PWs)   bands (ev):

   -20.7035  -4.1591  -4.1591  -0.8369  16.8274  25.4266  25.4266  31.3501

          k = 0.2000 0.5000 0.5000 (   412 PWs)   bands (ev):

   -20.5791  -4.0325  -4.0325  -1.3058  17.3571  24.8859  24.8859  32.2261

          k = 0.2500 0.5000 0.5000 (   412 PWs)   bands (ev):

   -20.4368  -3.8887  -3.8887  -1.8139  18.0331  24.2787  24.2787  33.2068

          k = 0.3000 0.5000 0.5000 (   412 PWs)   bands (ev):

   -20.2897  -3.7411  -3.7411  -2.3117  18.8487  23.6670  23.6670  31.9463

          k = 0.3500 0.5000 0.5000 (   404 PWs)   bands (ev):

   -20.1524  -3.6047  -3.6047  -2.7534  19.7890  23.1145  23.1145  29.9118

          k = 0.4000 0.5000 0.5000 (   412 PWs)   bands (ev):

   -20.0403  -3.4940  -3.4940  -3.0999  20.8149  22.6765  22.6765  28.1038

          k = 0.4500 0.5000 0.5000 (   432 PWs)   bands (ev):

   -19.9668  -3.4218  -3.4218  -3.3209  21.7998  22.3955  22.3955  26.6496

          k = 0.5000 0.5000 0.5000 (   432 PWs)   bands (ev):

   -19.9411  -3.3967  -3.3967  -3.3967  22.2991  22.2991  22.2991  25.9939

          k = 0.4750 0.4750 0.4750 (   432 PWs)   bands (ev):

   -19.9606  -3.3962  -3.3873  -3.3873  21.9300  22.3621  22.3621  26.4983

          k = 0.4500 0.4500 0.4500 (   423 PWs)   bands (ev):

   -20.0185  -3.3939  -3.3591  -3.3591  21.1679  22.5491  22.5491  27.6481

          k = 0.4250 0.4250 0.4250 (   408 PWs)   bands (ev):

   -20.1137  -3.3886  -3.3115  -3.3115  20.3620  22.8543  22.8543  29.0251

          k = 0.4000 0.4000 0.4000 (   402 PWs)   bands (ev):

   -20.2444  -3.3778  -3.2441  -3.2441  19.6269  23.2666  23.2666  30.3596

          k = 0.3750 0.3750 0.3750 (   408 PWs)   bands (ev):

   -20.4079  -3.3577  -3.1564  -3.1564  18.9883  23.7700  23.7700  31.3578

          k = 0.3500 0.3500 0.3500 (   414 PWs)   bands (ev):

   -20.6005  -3.3236  -3.0480  -3.0480  18.4388  24.3422  24.3422  31.8349

          k = 0.3250 0.3250 0.3250 (   413 PWs)   bands (ev):

   -20.8178  -3.2703  -2.9192  -2.9192  17.9550  24.9541  24.9541  31.9318

          k = 0.3000 0.3000 0.3000 (   407 PWs)   bands (ev):

   -21.0548  -3.1922  -2.7706  -2.7706  17.5048  25.5694  25.5694  31.8924

          k = 0.2750 0.2750 0.2750 (   404 PWs)   bands (ev):

   -21.3057  -3.0847  -2.6038  -2.6038  17.0534  26.1476  26.1476  31.8815

          k = 0.2500 0.2500 0.2500 (   416 PWs)   bands (ev):

   -21.5642  -2.9443  -2.4215  -2.4215  16.5713  26.6501  26.6501  31.9943

          k = 0.2250 0.2250 0.2250 (   410 PWs)   bands (ev):

   -21.8235  -2.7695  -2.2270  -2.2270  16.0404  27.0522  27.0522  32.2825

          k = 0.2000 0.2000 0.2000 (   413 PWs)   bands (ev):

   -22.0771  -2.5614  -2.0252  -2.0252  15.4573  27.3450  27.3450  32.7656

          k = 0.1750 0.1750 0.1750 (   410 PWs)   bands (ev):

   -22.3184  -2.3244  -1.8217  -1.8217  14.8331  27.5391  27.5391  33.4402

          k = 0.1500 0.1500 0.1500 (   413 PWs)   bands (ev):

   -22.5413  -2.0661  -1.6233  -1.6233  14.1903  27.6550  27.6550  34.2831

          k = 0.1250 0.1250 0.1250 (   413 PWs)   bands (ev):

   -22.7400  -1.7981  -1.4373  -1.4373  13.5588  27.7159  27.7159  35.2567

          k = 0.1000 0.1000 0.1000 (   410 PWs)   bands (ev):

   -22.9097  -1.5362  -1.2713  -1.2713  12.9725  27.7420  27.7420  36.3062

          k = 0.0750 0.0750 0.0750 (   422 PWs)   bands (ev):

   -23.0461  -1.2995  -1.1328  -1.1328  12.4665  27.7482  27.7482  37.3543

          k = 0.0500 0.0500 0.0500 (   422 PWs)   bands (ev):

   -23.1459  -1.1089  -1.0284  -1.0284  12.0745  27.7468  27.7468  38.2899

          k = 0.0250 0.0250 0.0250 (   425 PWs)   bands (ev):

   -23.2068  -0.9846  -0.9634  -0.9634  11.8258  27.7434  27.7434  38.9628

          k = 0.0000 0.0000 0.0000 (   437 PWs)   bands (ev):

   -23.2273  -0.9414  -0.9414  -0.9414  11.7404  27.7415  27.7415  39.2107

          k = 0.0500 0.0000 0.0000 (   429 PWs)   bands (ev):

   -23.2000  -1.0779  -0.9309  -0.9309  11.8537  27.6717  27.8134  39.1559

          k = 0.1000 0.0000 0.0000 (   421 PWs)   bands (ev):

   -23.1203  -1.4641  -0.9001  -0.9001  12.1789  27.4332  28.0287  38.9913

          k = 0.1500 0.0000 0.0000 (   417 PWs)   bands (ev):

   -22.9933  -2.0400  -0.8520  -0.8520  12.6808  26.9736  28.3844  38.7197

          k = 0.2000 0.0000 0.0000 (   417 PWs)   bands (ev):

   -22.8282  -2.7297  -0.7908  -0.7908  13.3207  26.2654  28.8755  38.3567

          k = 0.2500 0.0000 0.0000 (   421 PWs)   bands (ev):

   -22.6379  -3.4581  -0.7224  -0.7224  14.0673  25.3394  29.4934  37.9316

          k = 0.3000 0.0000 0.0000 (   417 PWs)   bands (ev):

   -22.4391  -4.1576  -0.6532  -0.6532  14.8979  24.2634  30.2217  37.4897

          k = 0.3500 0.0000 0.0000 (   409 PWs)   bands (ev):

   -22.2517  -4.7698  -0.5902  -0.5902  15.7928  23.1140  31.0270  37.0814

          k = 0.4000 0.0000 0.0000 (   410 PWs)   bands (ev):

   -22.0969  -5.2460  -0.5398  -0.5398  16.7211  21.9701  31.8399  36.7528

          k = 0.4500 0.0000 0.0000 (   410 PWs)   bands (ev):

   -21.9945  -5.5482  -0.5072  -0.5072  17.5927  20.9560  32.5123  36.5409

          k = 0.5000 0.0000 0.0000 (   402 PWs)   bands (ev):

   -21.9586  -5.6517  -0.4959  -0.4959  18.0453  20.4540  32.7913  36.4680

          k = 0.5000 0.0500 0.0000 (   406 PWs)   bands (ev):

   -21.9351  -5.6232  -0.6004  -0.4870  18.0202  20.5630  32.8340  35.2718

          k = 0.5000 0.1000 0.0000 (   406 PWs)   bands (ev):

   -21.8663  -5.5394  -0.8995  -0.4610  17.9424  20.8791  32.9383  33.3862

          k = 0.5000 0.1500 0.0000 (   408 PWs)   bands (ev):

   -21.7569  -5.4064  -1.3537  -0.4204  17.8054  21.3743  31.5938  33.0359

          k = 0.5000 0.2000 0.0000 (   408 PWs)   bands (ev):

   -21.6153  -5.2341  -1.9087  -0.3689  17.6027  22.0121  30.0319  33.0264

          k = 0.5000 0.2500 0.0000 (   396 PWs)   bands (ev):

   -21.4529  -5.0365  -2.5052  -0.3113  17.3359  22.7560  28.7480  32.8179

          k = 0.5000 0.3000 0.0000 (   404 PWs)   bands (ev):

   -21.2843  -4.8314  -3.0857  -0.2532  17.0214  23.5706  27.7527  32.3696

          k = 0.5000 0.3500 0.0000 (   400 PWs)   bands (ev):

   -21.1264  -4.6393  -3.5982  -0.2003  16.6960  24.4186  27.0327  31.7247

          k = 0.5000 0.4000 0.0000 (   398 PWs)   bands (ev):

   -20.9968  -4.4817  -3.9991  -0.1581  16.4094  25.2411  26.5562  30.9898

          k = 0.5000 0.4500 0.0000 (   396 PWs)   bands (ev):

   -20.9114  -4.3779  -4.2541  -0.1308  16.2126  25.9161  26.2883  30.3420

          k = 0.5000 0.5000 0.0000 (   388 PWs)   bands (ev):

   -20.8816  -4.3416  -4.3416  -0.1214  16.1425  26.2022  26.2022  30.0613

          k = 0.4750 0.4750 0.0000 (   388 PWs)   bands (ev):

   -20.8966  -4.3338  -4.3236  -0.1262  16.1775  26.0887  26.2097  30.2087

          k = 0.4500 0.4500 0.0000 (   406 PWs)   bands (ev):

   -20.9415  -4.3097  -4.2700  -0.1403  16.2756  25.8026  26.2311  30.6002

          k = 0.4250 0.4250 0.0000 (   404 PWs)   bands (ev):

   -21.0148  -4.2671  -4.1815  -0.1636  16.4153  25.4539  26.2674  31.1427

          k = 0.4000 0.4000 0.0000 (   402 PWs)   bands (ev):

   -21.1147  -4.2030  -4.0594  -0.1955  16.5614  25.1377  26.3173  31.7636

          k = 0.3750 0.3750 0.0000 (   406 PWs)   bands (ev):

   -21.2386  -4.1140  -3.9058  -0.2354  16.6676  24.9282  26.3794  32.4163

          k = 0.3500 0.3500 0.0000 (   402 PWs)   bands (ev):

   -21.3832  -3.9969  -3.7233  -0.2825  16.6859  24.8807  26.4529  33.0680

          k = 0.3250 0.3250 0.0000 (   402 PWs)   bands (ev):

   -21.5445  -3.8492  -3.5149  -0.3358  16.5811  25.0226  26.5363  33.6882

          k = 0.3000 0.3000 0.0000 (   406 PWs)   bands (ev):

   -21.7183  -3.6699  -3.2846  -0.3941  16.3446  25.3452  26.6282  34.2434

          k = 0.2750 0.2750 0.0000 (   404 PWs)   bands (ev):

   -21.8999  -3.4589  -3.0368  -0.4560  15.9922  25.8060  26.7278  34.7052

          k = 0.2500 0.2500 0.0000 (   415 PWs)   bands (ev):

   -22.0848  -3.2185  -2.7767  -0.5200  15.5528  26.3400  26.8332  35.0620

          k = 0.2250 0.2250 0.0000 (   411 PWs)   bands (ev):

   -22.2680  -2.9522  -2.5101  -0.5845  15.0577  26.8743  26.9441  35.3456

          k = 0.2000 0.2000 0.0000 (   411 PWs)   bands (ev):

   -22.4452  -2.6659  -2.2434  -0.6480  14.5342  27.0588  27.3380  35.6249

          k = 0.1750 0.1750 0.0000 (   413 PWs)   bands (ev):

   -22.6120  -2.3671  -1.9835  -0.7088  14.0059  27.1758  27.6789  35.9736

          k = 0.1500 0.1500 0.0000 (   413 PWs)   bands (ev):

   -22.7647  -2.0658  -1.7378  -0.7653  13.4932  27.2929  27.8774  36.4328

          k = 0.1250 0.1250 0.0000 (   417 PWs)   bands (ev):

   -22.8999  -1.7737  -1.5137  -0.8159  13.0149  27.4063  27.9499  36.9939

          k = 0.1000 0.1000 0.0000 (   417 PWs)   bands (ev):

   -23.0144  -1.5044  -1.3182  -0.8594  12.5892  27.5127  27.9353  37.6107

          k = 0.0750 0.0750 0.0000 (   419 PWs)   bands (ev):

   -23.1061  -1.2728  -1.1582  -0.8945  12.2337  27.6057  27.8765  38.2163

          k = 0.0500 0.0500 0.0000 (   421 PWs)   bands (ev):

   -23.1729  -1.0938  -1.0393  -0.9203  11.9651  27.6787  27.8097  38.7338

          k = 0.0250 0.0250 0.0000 (   429 PWs)   bands (ev):

   -23.2136  -0.9803  -0.9661  -0.9361  11.7974  27.7256  27.7598  39.0860

          k = 0.0000 0.0000 0.0000 (   437 PWs)   bands (ev):

   -23.2273  -0.9414  -0.9414  -0.9414  11.7404  27.7415  27.7415  39.2107

          k = 0.0250 0.0250 0.0250 (   425 PWs)   bands (ev):

   -23.2068  -0.9846  -0.9634  -0.9634  11.8258  27.7434  27.7434  38.9627

          k = 0.0500 0.0500 0.0500 (   422 PWs)   bands (ev):

   -23.1459  -1.1089  -1.0284  -1.0284  12.0745  27.7468  27.7468  38.2899

          k = 0.0750 0.0750 0.0750 (   422 PWs)   bands (ev):

   -23.0461  -1.2995  -1.1328  -1.1328  12.4665  27.7482  27.7482  37.3543

          k = 0.1000 0.1000 0.1000 (   410 PWs)   bands (ev):

   -22.9097  -1.5362  -1.2713  -1.2713  12.9725  27.7420  27.7420  36.3062

          k = 0.1250 0.1250 0.1250 (   413 PWs)   bands (ev):

   -22.7400  -1.7981  -1.4373  -1.4373  13.5588  27.7159  27.7159  35.2567

          k = 0.1500 0.1500 0.1500 (   413 PWs)   bands (ev):

   -22.5413  -2.0661  -1.6233  -1.6233  14.1903  27.6550  27.6550  34.2831

          k = 0.1750 0.1750 0.1750 (   410 PWs)   bands (ev):

   -22.3184  -2.3244  -1.8217  -1.8217  14.8331  27.5391  27.5391  33.4402

          k = 0.2000 0.2000 0.2000 (   413 PWs)   bands (ev):

   -22.0771  -2.5614  -2.0252  -2.0252  15.4573  27.3450  27.3450  32.7656

          k = 0.2250 0.2250 0.2250 (   410 PWs)   bands (ev):

   -21.8235  -2.7695  -2.2270  -2.2270  16.0404  27.0522  27.0522  32.2825

          k = 0.2500 0.2500 0.2500 (   416 PWs)   bands (ev):

   -21.5642  -2.9443  -2.4215  -2.4215  16.5713  26.6501  26.6501  31.9943

          k = 0.2750 0.2750 0.2750 (   404 PWs)   bands (ev):

   -21.3057  -3.0847  -2.6038  -2.6038  17.0534  26.1476  26.1476  31.8815

          k = 0.3000 0.3000 0.3000 (   407 PWs)   bands (ev):

   -21.0548  -3.1922  -2.7706  -2.7706  17.5048  25.5694  25.5694  31.8924

          k = 0.3250 0.3250 0.3250 (   413 PWs)   bands (ev):

   -20.8178  -3.2703  -2.9192  -2.9192  17.9550  24.9541  24.9541  31.9318

          k = 0.3500 0.3500 0.3500 (   414 PWs)   bands (ev):

   -20.6005  -3.3236  -3.0480  -3.0480  18.4388  24.3422  24.3422  31.8349

          k = 0.3750 0.3750 0.3750 (   408 PWs)   bands (ev):

   -20.4079  -3.3577  -3.1564  -3.1564  18.9883  23.7700  23.7700  31.3578

          k = 0.4000 0.4000 0.4000 (   402 PWs)   bands (ev):

   -20.2444  -3.3778  -3.2441  -3.2441  19.6269  23.2666  23.2666  30.3596

          k = 0.4250 0.4250 0.4250 (   408 PWs)   bands (ev):

   -20.1137  -3.3886  -3.3115  -3.3115  20.3620  22.8543  22.8543  29.0251

          k = 0.4500 0.4500 0.4500 (   423 PWs)   bands (ev):

   -20.0185  -3.3939  -3.3591  -3.3591  21.1679  22.5491  22.5491  27.6481

          k = 0.4750 0.4750 0.4750 (   432 PWs)   bands (ev):

   -19.9606  -3.3962  -3.3873  -3.3873  21.9300  22.3621  22.3621  26.4983

          k = 0.5000 0.5000 0.5000 (   432 PWs)   bands (ev):

   -19.9411  -3.3967  -3.3967  -3.3967  22.2991  22.2991  22.2991  25.9939

     Writing all to output data dir ./work/POSCAR.save/

     init_run     :      0.35s CPU      0.36s WALL (       1 calls)
     electrons    :      0.35s CPU      0.42s WALL (       1 calls)

     Called by init_run:
     wfcinit      :      0.00s CPU      0.01s WALL (       1 calls)
     potinit      :      0.13s CPU      0.13s WALL (       1 calls)
     hinit0       :      0.18s CPU      0.18s WALL (       1 calls)

     Called by electrons:
     c_bands      :      0.35s CPU      0.42s WALL (       1 calls)
     v_of_rho     :      0.00s CPU      0.00s WALL (       1 calls)
     newd         :      0.03s CPU      0.03s WALL (       1 calls)
     PAW_pot      :      0.01s CPU      0.01s WALL (       1 calls)

     Called by c_bands:
     init_us_2    :      0.00s CPU      0.00s WALL (      91 calls)
     init_us_2:cp :      0.00s CPU      0.00s WALL (      91 calls)
     cegterg      :      0.28s CPU      0.30s WALL (      92 calls)

     Called by *egterg:
     cdiaghg      :      0.05s CPU      0.06s WALL (    1061 calls)
     h_psi        :      0.21s CPU      0.23s WALL (    1153 calls)
     s_psi        :      0.00s CPU      0.00s WALL (    1153 calls)
     g_psi        :      0.00s CPU      0.00s WALL (     970 calls)

     Called by h_psi:
     h_psi:calbec :      0.02s CPU      0.02s WALL (    1153 calls)
     vloc_psi     :      0.19s CPU      0.20s WALL (    1153 calls)
     add_vuspsi   :      0.00s CPU      0.00s WALL (    1153 calls)

     General routines
     calbec       :      0.02s CPU      0.02s WALL (    1153 calls)
     fft          :      0.20s CPU      0.20s WALL (      13 calls)
     ffts         :      0.11s CPU      0.11s WALL (       1 calls)
     fftw         :      0.18s CPU      0.19s WALL (   11140 calls)
     interpolate  :      0.11s CPU      0.11s WALL (       1 calls)
     davcio       :      0.00s CPU      0.00s WALL (     182 calls)

     Parallel routines

     PWSCF        :      0.93s CPU      1.39s WALL


   This run was terminated on:   9:30:44  16Nov2023            

=------------------------------------------------------------------------------=
   JOB DONE.
=------------------------------------------------------------------------------=
