
     Program PWSCF v.7.1 starts on 16Nov2023 at  9:30:39 

     This program is part of the open-source Quantum ESPRESSO suite
     for quantum simulation of materials; please cite
         "P. Giannozzi et al., J. Phys.:Condens. Matter 21 395502 (2009);
         "P. Giannozzi et al., J. Phys.:Condens. Matter 29 465901 (2017);
         "P. Giannozzi et al., J. Chem. Phys. 152 154105 (2020);
          URL http://www.quantum-espresso.org", 
     in publications or presentations arising from this work. More details at
     http://www.quantum-espresso.org/quote

     Parallel version (MPI & OpenMP), running on      10 processor cores
     Number of MPI processes:                10
     Threads/MPI process:                     1

     MPI processes distributed on     1 nodes
     14944 MiB available memory on the printing compute node when the environment starts

     Waiting for input...
     Reading input from standard input

     Current dimensions of program PWSCF are:
     Max number of different atomic species (ntypx) = 10
     Max number of k-points (npk) =  40000
     Max angular momentum in pseudopotentials (lmaxx) =  4
     file F.pbe-n-kjpaw_psl.1.0.0.UPF: wavefunction(s)  2S 2P renormalized
     Message from routine setup:
     using ibrav=0 with symmetry is DISCOURAGED, use correct ibrav instead

     R & G space division:  proc/nbgrp/npool/nimage =      10
     Subspace diagonalization in iterative solution of the eigenvalue problem:
     a serial algorithm will be used


     Parallelization info
     --------------------
     sticks:   dense  smooth     PW     G-vecs:    dense   smooth      PW
     Min          42      26      9                  666      322      69
     Max          44      27     11                  669      325      70
     Sum         429     261     97                 6667     3239     691

     Using Slab Decomposition



     bravais-lattice index     =            0
     lattice parameter (alat)  =       4.1347  a.u.
     unit-cell volume          =      70.6868 (a.u.)^3
     number of atoms/cell      =            1
     number of atomic types    =            1
     number of electrons       =         7.00
     number of Kohn-Sham states=            8
     kinetic-energy cutoff     =      49.0000  Ry
     charge density cutoff     =     316.0000  Ry
     scf convergence threshold =      7.3E-05
     mixing beta               =       0.7000
     number of iterations used =            8  plain     mixing
     Exchange-correlation= SLA  PW   PBX  PBC
                           (   1   4   3   4   0   0   0)

     celldm(1)=   4.134721  celldm(2)=   0.000000  celldm(3)=   0.000000
     celldm(4)=   0.000000  celldm(5)=   0.000000  celldm(6)=   0.000000

     crystal axes: (cart. coord. in units of alat)
               a(1) = (   1.000000   0.000000   0.000000 )  
               a(2) = (   0.000000   1.000000   0.000000 )  
               a(3) = (   0.000000   0.000000   1.000000 )  

     reciprocal axes: (cart. coord. in units 2 pi/alat)
               b(1) = (  1.000000  0.000000  0.000000 )  
               b(2) = (  0.000000  1.000000  0.000000 )  
               b(3) = (  0.000000  0.000000  1.000000 )  


     PseudoPot. # 1 for F  read from file:
     ./../../../pseudo/psl100_PBE/F.pbe-n-kjpaw_psl.1.0.0.UPF
     MD5 check sum: f1a4e9b73708756b7b23ac847c2f8178
     Pseudo is Projector augmented-wave + core cor, Zval =  7.0
     Generated using 'atomic' code by A. Dal Corso  v.7.2
     Shape of augmentation charge: PSQ
     Using radial grid of 1105 points,  4 beta functions with: 
                l(1) =   0
                l(2) =   0
                l(3) =   1
                l(4) =   1
     Q(r) pseudized with 0 coefficients 


     atomic species   valence    mass     pseudopotential
        F              7.00    18.99800     F ( 1.00)

     48 Sym. Ops., with inversion, found



   Cartesian axes

     site n.     atom                  positions (alat units)
         1           F   tau(   1) = (   0.0000000   0.0000000   0.0000000  )

     number of k points=   120  Methfessel-Paxton smearing, width (Ry)=  0.0200

     Number of k-points >= 100: set verbosity='high' to print them.

     Dense  grid:     6667 G-vectors     FFT dimensions: (  24,  24,  24)

     Smooth grid:     3239 G-vectors     FFT dimensions: (  20,  20,  20)

     Estimated max dynamical RAM per process >       1.84 MB

     Estimated total dynamical RAM >      18.45 MB

     Check: negative core charge=   -0.000004

     Initial potential from superposition of free atoms
     Starting wfcs are    4 randomized atomic wfcs +    4 random wfcs
     Checking if some PAW data can be deallocated... 

     total cpu time spent up to now is        0.5 secs

     per-process dynamical memory:     8.2 Mb

     Self-consistent Calculation

     iteration #  1     ecut=    49.00 Ry     beta= 0.70
     Davidson diagonalization with overlap
     ethr =  1.00E-02,  avg # of iterations =  5.3

     Threshold (ethr) on eigenvalues was too large:
     Diagonalizing with lowered threshold

     Davidson diagonalization with overlap
     ethr =  7.46E-07,  avg # of iterations =  5.7

     total cpu time spent up to now is        1.3 secs

     End of self-consistent calculation

     Number of k-points >= 100: set verbosity='high' to print the bands.

     the Fermi energy is    -0.8073 ev

!    total energy              =     -59.14976952 Ry
     total all-electron energy =      -199.562490 Ry
     estimated scf accuracy    <       0.00005045 Ry
     smearing contrib. (-TS)   =      -0.00031943 Ry
     internal energy E=F+TS    =     -59.14945008 Ry

     The total energy is F=E-TS. E is the sum of the following terms:
     one-electron contribution =     -18.20668792 Ry
     hartree contribution      =      13.14730984 Ry
     xc contribution           =      -9.27178236 Ry
     ewald contribution        =     -33.62441735 Ry
     one-center paw contrib.   =     -11.19387229 Ry

     convergence has been achieved in   1 iterations

     Writing all to output data dir ./work/POSCAR.save/

     init_run     :      0.31s CPU      0.33s WALL (       1 calls)
     electrons    :      0.43s CPU      0.86s WALL (       1 calls)

     Called by init_run:
     wfcinit      :      0.05s CPU      0.06s WALL (       1 calls)
     potinit      :      0.11s CPU      0.13s WALL (       1 calls)
     hinit0       :      0.14s CPU      0.15s WALL (       1 calls)

     Called by electrons:
     c_bands      :      0.38s CPU      0.79s WALL (       2 calls)
     sum_band     :      0.03s CPU      0.03s WALL (       2 calls)
     v_of_rho     :      0.00s CPU      0.00s WALL (       2 calls)
     newd         :      0.00s CPU      0.00s WALL (       2 calls)
     PAW_pot      :      0.02s CPU      0.03s WALL (       2 calls)
     mix_rho      :      0.00s CPU      0.00s WALL (       2 calls)

     Called by c_bands:
     init_us_2    :      0.00s CPU      0.00s WALL (     600 calls)
     init_us_2:cp :      0.00s CPU      0.00s WALL (     600 calls)
     cegterg      :      0.30s CPU      0.39s WALL (     240 calls)

     Called by *egterg:
     cdiaghg      :      0.07s CPU      0.09s WALL (    1440 calls)
     h_psi        :      0.22s CPU      0.27s WALL (    1680 calls)
     s_psi        :      0.00s CPU      0.00s WALL (    1680 calls)
     g_psi        :      0.00s CPU      0.00s WALL (    1320 calls)

     Called by h_psi:
     h_psi:calbec :      0.02s CPU      0.02s WALL (    1680 calls)
     vloc_psi     :      0.20s CPU      0.24s WALL (    1680 calls)
     add_vuspsi   :      0.00s CPU      0.00s WALL (    1680 calls)

     General routines
     calbec       :      0.02s CPU      0.02s WALL (    1920 calls)
     fft          :      0.13s CPU      0.14s WALL (      25 calls)
     ffts         :      0.10s CPU      0.11s WALL (       4 calls)
     fftw         :      0.20s CPU      0.24s WALL (   18262 calls)
     interpolate  :      0.10s CPU      0.11s WALL (       2 calls)

     Parallel routines

     PWSCF        :      0.84s CPU      1.90s WALL


   This run was terminated on:   9:30:41  16Nov2023            

=------------------------------------------------------------------------------=
   JOB DONE.
=------------------------------------------------------------------------------=
