
     Program PWSCF v.7.1 starts on 16Nov2023 at  9:25:37 

     This program is part of the open-source Quantum ESPRESSO suite
     for quantum simulation of materials; please cite
         "P. Giannozzi et al., J. Phys.:Condens. Matter 21 395502 (2009);
         "P. Giannozzi et al., J. Phys.:Condens. Matter 29 465901 (2017);
         "P. Giannozzi et al., J. Chem. Phys. 152 154105 (2020);
          URL http://www.quantum-espresso.org", 
     in publications or presentations arising from this work. More details at
     http://www.quantum-espresso.org/quote

     Parallel version (MPI & OpenMP), running on      10 processor cores
     Number of MPI processes:                10
     Threads/MPI process:                     1

     MPI processes distributed on     1 nodes
     14957 MiB available memory on the printing compute node when the environment starts

     Waiting for input...
     Reading input from standard input

     Current dimensions of program PWSCF are:
     Max number of different atomic species (ntypx) = 10
     Max number of k-points (npk) =  40000
     Max angular momentum in pseudopotentials (lmaxx) =  4

     Atomic positions and unit cell read from directory:
     ./work/POSCAR.save/

     file N.pbe-n-kjpaw_psl.1.0.0.UPF: wavefunction(s)  2S renormalized
     Message from routine setup:
     using ibrav=0 with symmetry is DISCOURAGED, use correct ibrav instead

     K-points division:     npool     =       2
     R & G space division:  proc/nbgrp/npool/nimage =       5
     Subspace diagonalization in iterative solution of the eigenvalue problem:
     a serial algorithm will be used


     Parallelization info
     --------------------
     sticks:   dense  smooth     PW     G-vecs:    dense   smooth      PW
     Min          62      35     13                  833      347      77
     Max          64      36     14                  834      350      78
     Sum         317     177     69                 4169     1743     389

     Using Slab Decomposition



     bravais-lattice index     =            0
     lattice parameter (alat)  =       3.5149  a.u.
     unit-cell volume          =      43.4246 (a.u.)^3
     number of atoms/cell      =            1
     number of atomic types    =            1
     number of electrons       =         5.00
     number of Kohn-Sham states=            7
     kinetic-energy cutoff     =      44.0000  Ry
     charge density cutoff     =     320.0000  Ry
     Exchange-correlation= SLA  PW   PBX  PBC
                           (   1   4   3   4   0   0   0)

     celldm(1)=   3.514891  celldm(2)=   0.000000  celldm(3)=   0.000000
     celldm(4)=   0.000000  celldm(5)=   0.000000  celldm(6)=   0.000000

     crystal axes: (cart. coord. in units of alat)
               a(1) = (   1.000000   0.000000   0.000000 )  
               a(2) = (   0.000000   1.000000   0.000000 )  
               a(3) = (   0.000000   0.000000   1.000000 )  

     reciprocal axes: (cart. coord. in units 2 pi/alat)
               b(1) = (  1.000000  0.000000  0.000000 )  
               b(2) = (  0.000000  1.000000  0.000000 )  
               b(3) = (  0.000000  0.000000  1.000000 )  


     PseudoPot. # 1 for N  read from file:
     ./../../../pseudo/psl100_PBE/N.pbe-n-kjpaw_psl.1.0.0.UPF
     MD5 check sum: 2b8382c31569063ce7f0d1e419cba686
     Pseudo is Projector augmented-wave + core cor, Zval =  5.0
     Generated using 'atomic' code by A. Dal Corso  v.7.2
     Shape of augmentation charge: PSQ
     Using radial grid of 1085 points,  4 beta functions with: 
                l(1) =   0
                l(2) =   0
                l(3) =   1
                l(4) =   1
     Q(r) pseudized with 0 coefficients 


     atomic species   valence    mass     pseudopotential
        N              5.00    14.00650     N ( 1.00)

     48 Sym. Ops., with inversion, found



   Cartesian axes

     site n.     atom                  positions (alat units)
         1           N   tau(   1) = (   0.0000000   0.0000000   0.0000000  )

     number of k points=    91  Methfessel-Paxton smearing, width (Ry)=  0.0200
                       cart. coord. in units 2pi/alat
        k(    1) = (   0.0000000   0.5000000   0.5000000), wk =   0.0219780
        k(    2) = (   0.0500000   0.5000000   0.5000000), wk =   0.0219780
        k(    3) = (   0.1000000   0.5000000   0.5000000), wk =   0.0219780
        k(    4) = (   0.1500000   0.5000000   0.5000000), wk =   0.0219780
        k(    5) = (   0.2000000   0.5000000   0.5000000), wk =   0.0219780
        k(    6) = (   0.2500000   0.5000000   0.5000000), wk =   0.0219780
        k(    7) = (   0.3000000   0.5000000   0.5000000), wk =   0.0219780
        k(    8) = (   0.3500000   0.5000000   0.5000000), wk =   0.0219780
        k(    9) = (   0.4000000   0.5000000   0.5000000), wk =   0.0219780
        k(   10) = (   0.4500000   0.5000000   0.5000000), wk =   0.0219780
        k(   11) = (   0.5000000   0.5000000   0.5000000), wk =   0.0219780
        k(   12) = (   0.4750000   0.4750000   0.4750000), wk =   0.0219780
        k(   13) = (   0.4500000   0.4500000   0.4500000), wk =   0.0219780
        k(   14) = (   0.4250000   0.4250000   0.4250000), wk =   0.0219780
        k(   15) = (   0.4000000   0.4000000   0.4000000), wk =   0.0219780
        k(   16) = (   0.3750000   0.3750000   0.3750000), wk =   0.0219780
        k(   17) = (   0.3500000   0.3500000   0.3500000), wk =   0.0219780
        k(   18) = (   0.3250000   0.3250000   0.3250000), wk =   0.0219780
        k(   19) = (   0.3000000   0.3000000   0.3000000), wk =   0.0219780
        k(   20) = (   0.2750000   0.2750000   0.2750000), wk =   0.0219780
        k(   21) = (   0.2500000   0.2500000   0.2500000), wk =   0.0219780
        k(   22) = (   0.2250000   0.2250000   0.2250000), wk =   0.0219780
        k(   23) = (   0.2000000   0.2000000   0.2000000), wk =   0.0219780
        k(   24) = (   0.1750000   0.1750000   0.1750000), wk =   0.0219780
        k(   25) = (   0.1500000   0.1500000   0.1500000), wk =   0.0219780
        k(   26) = (   0.1250000   0.1250000   0.1250000), wk =   0.0219780
        k(   27) = (   0.1000000   0.1000000   0.1000000), wk =   0.0219780
        k(   28) = (   0.0750000   0.0750000   0.0750000), wk =   0.0219780
        k(   29) = (   0.0500000   0.0500000   0.0500000), wk =   0.0219780
        k(   30) = (   0.0250000   0.0250000   0.0250000), wk =   0.0219780
        k(   31) = (   0.0000000   0.0000000   0.0000000), wk =   0.0219780
        k(   32) = (   0.0500000   0.0000000   0.0000000), wk =   0.0219780
        k(   33) = (   0.1000000   0.0000000   0.0000000), wk =   0.0219780
        k(   34) = (   0.1500000   0.0000000   0.0000000), wk =   0.0219780
        k(   35) = (   0.2000000   0.0000000   0.0000000), wk =   0.0219780
        k(   36) = (   0.2500000   0.0000000   0.0000000), wk =   0.0219780
        k(   37) = (   0.3000000   0.0000000   0.0000000), wk =   0.0219780
        k(   38) = (   0.3500000   0.0000000   0.0000000), wk =   0.0219780
        k(   39) = (   0.4000000   0.0000000   0.0000000), wk =   0.0219780
        k(   40) = (   0.4500000   0.0000000   0.0000000), wk =   0.0219780
        k(   41) = (   0.5000000   0.0000000   0.0000000), wk =   0.0219780
        k(   42) = (   0.5000000   0.0500000   0.0000000), wk =   0.0219780
        k(   43) = (   0.5000000   0.1000000   0.0000000), wk =   0.0219780
        k(   44) = (   0.5000000   0.1500000   0.0000000), wk =   0.0219780
        k(   45) = (   0.5000000   0.2000000   0.0000000), wk =   0.0219780
        k(   46) = (   0.5000000   0.2500000   0.0000000), wk =   0.0219780
        k(   47) = (   0.5000000   0.3000000   0.0000000), wk =   0.0219780
        k(   48) = (   0.5000000   0.3500000   0.0000000), wk =   0.0219780
        k(   49) = (   0.5000000   0.4000000   0.0000000), wk =   0.0219780
        k(   50) = (   0.5000000   0.4500000   0.0000000), wk =   0.0219780
        k(   51) = (   0.5000000   0.5000000   0.0000000), wk =   0.0219780
        k(   52) = (   0.4750000   0.4750000   0.0000000), wk =   0.0219780
        k(   53) = (   0.4500000   0.4500000   0.0000000), wk =   0.0219780
        k(   54) = (   0.4250000   0.4250000   0.0000000), wk =   0.0219780
        k(   55) = (   0.4000000   0.4000000   0.0000000), wk =   0.0219780
        k(   56) = (   0.3750000   0.3750000   0.0000000), wk =   0.0219780
        k(   57) = (   0.3500000   0.3500000   0.0000000), wk =   0.0219780
        k(   58) = (   0.3250000   0.3250000   0.0000000), wk =   0.0219780
        k(   59) = (   0.3000000   0.3000000   0.0000000), wk =   0.0219780
        k(   60) = (   0.2750000   0.2750000   0.0000000), wk =   0.0219780
        k(   61) = (   0.2500000   0.2500000   0.0000000), wk =   0.0219780
        k(   62) = (   0.2250000   0.2250000   0.0000000), wk =   0.0219780
        k(   63) = (   0.2000000   0.2000000   0.0000000), wk =   0.0219780
        k(   64) = (   0.1750000   0.1750000   0.0000000), wk =   0.0219780
        k(   65) = (   0.1500000   0.1500000   0.0000000), wk =   0.0219780
        k(   66) = (   0.1250000   0.1250000   0.0000000), wk =   0.0219780
        k(   67) = (   0.1000000   0.1000000   0.0000000), wk =   0.0219780
        k(   68) = (   0.0750000   0.0750000   0.0000000), wk =   0.0219780
        k(   69) = (   0.0500000   0.0500000   0.0000000), wk =   0.0219780
        k(   70) = (   0.0250000   0.0250000   0.0000000), wk =   0.0219780
        k(   71) = (   0.0000000   0.0000000   0.0000000), wk =   0.0219780
        k(   72) = (   0.0250000   0.0250000   0.0250000), wk =   0.0219780
        k(   73) = (   0.0500000   0.0500000   0.0500000), wk =   0.0219780
        k(   74) = (   0.0750000   0.0750000   0.0750000), wk =   0.0219780
        k(   75) = (   0.1000000   0.1000000   0.1000000), wk =   0.0219780
        k(   76) = (   0.1250000   0.1250000   0.1250000), wk =   0.0219780
        k(   77) = (   0.1500000   0.1500000   0.1500000), wk =   0.0219780
        k(   78) = (   0.1750000   0.1750000   0.1750000), wk =   0.0219780
        k(   79) = (   0.2000000   0.2000000   0.2000000), wk =   0.0219780
        k(   80) = (   0.2250000   0.2250000   0.2250000), wk =   0.0219780
        k(   81) = (   0.2500000   0.2500000   0.2500000), wk =   0.0219780
        k(   82) = (   0.2750000   0.2750000   0.2750000), wk =   0.0219780
        k(   83) = (   0.3000000   0.3000000   0.3000000), wk =   0.0219780
        k(   84) = (   0.3250000   0.3250000   0.3250000), wk =   0.0219780
        k(   85) = (   0.3500000   0.3500000   0.3500000), wk =   0.0219780
        k(   86) = (   0.3750000   0.3750000   0.3750000), wk =   0.0219780
        k(   87) = (   0.4000000   0.4000000   0.4000000), wk =   0.0219780
        k(   88) = (   0.4250000   0.4250000   0.4250000), wk =   0.0219780
        k(   89) = (   0.4500000   0.4500000   0.4500000), wk =   0.0219780
        k(   90) = (   0.4750000   0.4750000   0.4750000), wk =   0.0219780
        k(   91) = (   0.5000000   0.5000000   0.5000000), wk =   0.0219780

     Dense  grid:     4169 G-vectors     FFT dimensions: (  24,  24,  24)

     Smooth grid:     1743 G-vectors     FFT dimensions: (  15,  15,  15)

     Estimated max dynamical RAM per process >       1.01 MB

     Estimated total dynamical RAM >      10.09 MB

     Check: negative core charge=   -0.000011

     The potential is recalculated from file :
     ./work/POSCAR.save/charge-density

     Starting wfcs are    4 randomized atomic wfcs +    3 random wfcs
     Checking if some PAW data can be deallocated... 

     Band Structure Calculation
     Davidson diagonalization with overlap

     ethr =  1.46E-06,  avg # of iterations =  8.4

     total cpu time spent up to now is        0.6 secs

     End of band structure calculation

          k = 0.0000 0.5000 0.5000 (   228 PWs)   bands (ev):

     0.8866   4.4559   4.4559  18.6777  21.6134  47.1521  47.1521

          k = 0.0500 0.5000 0.5000 (   224 PWs)   bands (ev):

     0.9524   4.5209   4.5209  18.4561  21.7186  46.1971  46.1971

          k = 0.1000 0.5000 0.5000 (   224 PWs)   bands (ev):

     1.1497   4.7128   4.7128  17.8186  22.0338  44.0274  44.0274

          k = 0.1500 0.5000 0.5000 (   212 PWs)   bands (ev):

     1.4780   5.0233   5.0233  16.8457  22.5578  41.4722  41.4722

          k = 0.2000 0.5000 0.5000 (   212 PWs)   bands (ev):

     1.9360   5.4342   5.4342  15.6340  23.2874  38.9022  38.9022

          k = 0.2500 0.5000 0.5000 (   212 PWs)   bands (ev):

     2.5223   5.9209   5.9209  14.2763  24.2176  36.4882  36.4882

          k = 0.3000 0.5000 0.5000 (   204 PWs)   bands (ev):

     3.2343   6.4469   6.4469  12.8495  25.3382  34.3355  34.3355

          k = 0.3500 0.5000 0.5000 (   212 PWs)   bands (ev):

     4.0673   6.9610   6.9610  11.4099  26.6257  32.5295  32.5295

          k = 0.4000 0.5000 0.5000 (   208 PWs)   bands (ev):

     5.0128   7.4023   7.4023  10.0074  28.0215  31.1549  31.1549

          k = 0.4500 0.5000 0.5000 (   208 PWs)   bands (ev):

     6.0432   7.7037   7.7037   8.6935  29.3413  30.2892  30.2892

          k = 0.5000 0.5000 0.5000 (   208 PWs)   bands (ev):

     6.8294   7.8113   7.8113   7.8113  29.9929  29.9929  29.9929

          k = 0.4750 0.4750 0.4750 (   208 PWs)   bands (ev):

     6.1286   7.8241   7.8241   8.3952  29.6647  30.1211  30.1211

          k = 0.4500 0.4500 0.4500 (   208 PWs)   bands (ev):

     4.9990   7.8641   7.8641   9.1791  29.0296  30.5034  30.5034

          k = 0.4250 0.4250 0.4250 (   208 PWs)   bands (ev):

     3.7502   7.9358   7.9358   9.8691  28.4962  31.1325  31.1325

          k = 0.4000 0.4000 0.4000 (   214 PWs)   bands (ev):

     2.4293   8.0457   8.0457  10.4442  28.2241  31.9969  31.9969

          k = 0.3750 0.3750 0.3750 (   214 PWs)   bands (ev):

     1.0681   8.2016   8.2016  10.9138  28.2499  33.0810  33.0810

          k = 0.3500 0.3500 0.3500 (   211 PWs)   bands (ev):

    -0.3058   8.4113   8.4113  11.2974  28.5584  34.3639  34.3639

          k = 0.3250 0.3250 0.3250 (   211 PWs)   bands (ev):

    -1.6668   8.6817   8.6817  11.6208  29.1089  35.8193  35.8193

          k = 0.3000 0.3000 0.3000 (   208 PWs)   bands (ev):

    -2.9920   9.0185   9.0185  11.9110  29.8461  37.4089  37.4089

          k = 0.2750 0.2750 0.2750 (   208 PWs)   bands (ev):

    -4.2619   9.4243   9.4243  12.1907  30.7059  39.0726  39.0726

          k = 0.2500 0.2500 0.2500 (   217 PWs)   bands (ev):

    -5.4602   9.8993   9.8993  12.4765  31.6165  40.7025  40.7025

          k = 0.2250 0.2250 0.2250 (   214 PWs)   bands (ev):

    -6.5735  10.4417  10.4417  12.7802  32.5010  42.0969  42.0969

          k = 0.2000 0.2000 0.2000 (   214 PWs)   bands (ev):

    -7.5912  11.0445  11.0445  13.1049  33.2746  42.9244  42.9244

          k = 0.1750 0.1750 0.1750 (   214 PWs)   bands (ev):

    -8.5048  11.6962  11.6962  13.4491  33.8627  42.9088  42.9088

          k = 0.1500 0.1500 0.1500 (   214 PWs)   bands (ev):

    -9.3076  12.3796  12.3796  13.8055  34.2173  42.1707  42.1707

          k = 0.1250 0.1250 0.1250 (   215 PWs)   bands (ev):

    -9.9944  13.0702  13.0702  14.1609  34.3372  41.0679  41.0679

          k = 0.1000 0.1000 0.1000 (   215 PWs)   bands (ev):

   -10.5612  13.7350  13.7350  14.4983  34.2708  39.8852  39.8852

          k = 0.0750 0.0750 0.0750 (   221 PWs)   bands (ev):

   -11.0050  14.3317  14.3317  14.7952  34.0968  38.8010  38.8010

          k = 0.0500 0.0500 0.0500 (   215 PWs)   bands (ev):

   -11.3234  14.8124  14.8124  15.0305  33.9002  37.9373  37.9373

          k = 0.0250 0.0250 0.0250 (   209 PWs)   bands (ev):

   -11.5151  15.1268  15.1268  15.1826  33.7515  37.3808  37.3808

          k = 0.0000 0.0000 0.0000 (   203 PWs)   bands (ev):

   -11.5790  15.2363  15.2363  15.2363  33.6966  37.1886  37.1886

          k = 0.0500 0.0000 0.0000 (   211 PWs)   bands (ev):

   -11.4938  14.7975  15.2773  15.2773  33.7668  37.2878  37.5971

          k = 0.1000 0.0000 0.0000 (   219 PWs)   bands (ev):

   -11.2386  13.6028  15.3974  15.3974  33.9398  37.5840  38.7085

          k = 0.1500 0.0000 0.0000 (   223 PWs)   bands (ev):

   -10.8157  11.9031  15.5886  15.5886  34.1714  38.0745  40.2116

          k = 0.2000 0.0000 0.0000 (   219 PWs)   bands (ev):

   -10.2293   9.9322  15.8383  15.8383  34.4473  38.7525  41.7175

          k = 0.2500 0.0000 0.0000 (   219 PWs)   bands (ev):

    -9.4871   7.8584  16.1244  16.1244  34.7591  39.6045  42.8953

          k = 0.3000 0.0000 0.0000 (   220 PWs)   bands (ev):

    -8.6027   5.7967  16.4220  16.4220  35.0911  40.6074  43.5868

          k = 0.3500 0.0000 0.0000 (   220 PWs)   bands (ev):

    -7.6041   3.8367  16.7011  16.7011  35.4173  41.7147  43.8454

          k = 0.4000 0.0000 0.0000 (   220 PWs)   bands (ev):

    -6.5546   2.0793  16.9305  16.9305  35.7008  42.8296  43.8447

          k = 0.4500 0.0000 0.0000 (   216 PWs)   bands (ev):

    -5.6202   0.7123  17.0821  17.0821  35.8977  43.7477  43.7627

          k = 0.5000 0.0000 0.0000 (   216 PWs)   bands (ev):

    -5.1968   0.1435  17.1350  17.1350  35.9683  43.7207  44.1268

          k = 0.5000 0.0500 0.0000 (   216 PWs)   bands (ev):

    -5.1196   0.2205  16.8254  17.1694  35.5906  43.8049  44.4565

          k = 0.5000 0.1000 0.0000 (   212 PWs)   bands (ev):

    -4.8884   0.4489  15.9550  17.2706  34.4690  43.9872  45.4379

          k = 0.5000 0.1500 0.0000 (   212 PWs)   bands (ev):

    -4.5047   0.8206  14.6602  17.4305  32.7203  44.2588  46.0148

          k = 0.5000 0.2000 0.0000 (   212 PWs)   bands (ev):

    -3.9715   1.3207  13.0958  17.6358  30.6023  44.6217  45.6787

          k = 0.5000 0.2500 0.0000 (   206 PWs)   bands (ev):

    -3.2938   1.9251  11.3926  17.8700  28.3817  45.0671  45.7345

          k = 0.5000 0.3000 0.0000 (   216 PWs)   bands (ev):

    -2.4806   2.5941   9.6480  18.1106  26.2601  45.5747  46.0157

          k = 0.5000 0.3500 0.0000 (   218 PWs)   bands (ev):

    -1.5499   3.2712   7.9434  18.3348  24.3923  46.1113  46.3984

          k = 0.5000 0.4000 0.0000 (   216 PWs)   bands (ev):

    -0.5436   3.8740   6.3611  18.5177  22.9120  46.6194  46.7756

          k = 0.5000 0.4500 0.0000 (   224 PWs)   bands (ev):

     0.4100   4.3002   5.0525  18.6362  21.9492  47.0046  47.0508

          k = 0.5000 0.5000 0.0000 (   228 PWs)   bands (ev):

     0.8866   4.4559   4.4559  18.6777  21.6134  47.1521  47.1521

          k = 0.4750 0.4750 0.0000 (   228 PWs)   bands (ev):

     0.6234   4.4992   4.6566  18.6567  21.7825  47.0174  47.1602

          k = 0.4500 0.4500 0.0000 (   216 PWs)   bands (ev):

    -0.0344   4.6296   5.1355  18.5948  22.2803  46.6433  47.1831

          k = 0.4250 0.4250 0.0000 (   218 PWs)   bands (ev):

    -0.8954   4.8454   5.7205  18.4918  23.0789  46.0925  47.2122

          k = 0.4000 0.4000 0.0000 (   218 PWs)   bands (ev):

    -1.8495   5.1458   6.3331  18.3508  24.1370  45.4360  47.2368

          k = 0.3750 0.3750 0.0000 (   217 PWs)   bands (ev):

    -2.8392   5.5293   6.9491  18.1750  25.4034  44.7311  47.2388

          k = 0.3500 0.3500 0.0000 (   217 PWs)   bands (ev):

    -3.8306   5.9933   7.5661  17.9686  26.8185  44.0231  47.1939

          k = 0.3250 0.3250 0.0000 (   211 PWs)   bands (ev):

    -4.8009   6.5349   8.1894  17.7368  28.3159  43.3482  47.0708

          k = 0.3000 0.3000 0.0000 (   213 PWs)   bands (ev):

    -5.7344   7.1497   8.8231  17.4847  29.8145  42.7348  46.8319

          k = 0.2750 0.2750 0.0000 (   215 PWs)   bands (ev):

    -6.6189   7.8319   9.4717  17.2195  31.2206  42.2017  46.4393

          k = 0.2500 0.2500 0.0000 (   215 PWs)   bands (ev):

    -7.4455   8.5751  10.1359  16.9479  32.4292  41.7481  45.8636

          k = 0.2250 0.2250 0.0000 (   215 PWs)   bands (ev):

    -8.2075   9.3700  10.8133  16.6768  33.3486  41.3386  45.0919

          k = 0.2000 0.2000 0.0000 (   217 PWs)   bands (ev):

    -8.8996  10.2047  11.4975  16.4131  33.9397  40.9057  44.1387

          k = 0.1750 0.1750 0.0000 (   221 PWs)   bands (ev):

    -9.5176  11.0633  12.1791  16.1628  34.2359  40.3909  43.0454

          k = 0.1500 0.1500 0.0000 (   221 PWs)   bands (ev):

   -10.0585  11.9254  12.8444  15.9335  34.3157  39.7882  41.8733

          k = 0.1250 0.1250 0.0000 (   213 PWs)   bands (ev):

   -10.5197  12.7658  13.4751  15.7309  34.2598  39.1409  40.6933

          k = 0.1000 0.1000 0.0000 (   217 PWs)   bands (ev):

   -10.8993  13.5475  14.0479  15.5574  34.1315  38.5118  39.5783

          k = 0.0750 0.0750 0.0000 (   219 PWs)   bands (ev):

   -11.1960  14.2309  14.5365  15.4186  33.9776  37.9623  38.6047

          k = 0.0500 0.0500 0.0000 (   215 PWs)   bands (ev):

   -11.4086  14.7696  14.9136  15.3176  33.8346  37.5406  37.8432

          k = 0.0250 0.0250 0.0000 (   207 PWs)   bands (ev):

   -11.5364  15.1163  15.1535  15.2570  33.7333  37.2777  37.3563

          k = 0.0000 0.0000 0.0000 (   203 PWs)   bands (ev):

   -11.5790  15.2363  15.2363  15.2363  33.6966  37.1886  37.1886

          k = 0.0250 0.0250 0.0250 (   209 PWs)   bands (ev):

   -11.5151  15.1268  15.1268  15.1826  33.7515  37.3808  37.3808

          k = 0.0500 0.0500 0.0500 (   215 PWs)   bands (ev):

   -11.3234  14.8124  14.8124  15.0305  33.9002  37.9373  37.9373

          k = 0.0750 0.0750 0.0750 (   221 PWs)   bands (ev):

   -11.0050  14.3317  14.3317  14.7952  34.0968  38.8010  38.8010

          k = 0.1000 0.1000 0.1000 (   215 PWs)   bands (ev):

   -10.5612  13.7350  13.7350  14.4983  34.2708  39.8852  39.8852

          k = 0.1250 0.1250 0.1250 (   215 PWs)   bands (ev):

    -9.9944  13.0702  13.0702  14.1609  34.3372  41.0679  41.0679

          k = 0.1500 0.1500 0.1500 (   214 PWs)   bands (ev):

    -9.3076  12.3796  12.3796  13.8055  34.2173  42.1707  42.1707

          k = 0.1750 0.1750 0.1750 (   214 PWs)   bands (ev):

    -8.5048  11.6962  11.6962  13.4491  33.8627  42.9088  42.9088

          k = 0.2000 0.2000 0.2000 (   214 PWs)   bands (ev):

    -7.5912  11.0445  11.0445  13.1049  33.2746  42.9244  42.9244

          k = 0.2250 0.2250 0.2250 (   214 PWs)   bands (ev):

    -6.5735  10.4417  10.4417  12.7802  32.5010  42.0969  42.0969

          k = 0.2500 0.2500 0.2500 (   217 PWs)   bands (ev):

    -5.4602   9.8993   9.8993  12.4765  31.6165  40.7025  40.7025

          k = 0.2750 0.2750 0.2750 (   208 PWs)   bands (ev):

    -4.2619   9.4243   9.4243  12.1907  30.7059  39.0726  39.0726

          k = 0.3000 0.3000 0.3000 (   208 PWs)   bands (ev):

    -2.9920   9.0185   9.0185  11.9110  29.8461  37.4089  37.4089

          k = 0.3250 0.3250 0.3250 (   211 PWs)   bands (ev):

    -1.6668   8.6817   8.6817  11.6208  29.1089  35.8193  35.8193

          k = 0.3500 0.3500 0.3500 (   211 PWs)   bands (ev):

    -0.3058   8.4113   8.4113  11.2974  28.5584  34.3639  34.3639

          k = 0.3750 0.3750 0.3750 (   214 PWs)   bands (ev):

     1.0681   8.2016   8.2016  10.9138  28.2499  33.0810  33.0810

          k = 0.4000 0.4000 0.4000 (   214 PWs)   bands (ev):

     2.4293   8.0457   8.0457  10.4442  28.2241  31.9969  31.9969

          k = 0.4250 0.4250 0.4250 (   208 PWs)   bands (ev):

     3.7502   7.9358   7.9358   9.8691  28.4962  31.1325  31.1325

          k = 0.4500 0.4500 0.4500 (   208 PWs)   bands (ev):

     4.9990   7.8641   7.8641   9.1791  29.0296  30.5034  30.5034

          k = 0.4750 0.4750 0.4750 (   208 PWs)   bands (ev):

     6.1286   7.8241   7.8241   8.3952  29.6647  30.1211  30.1211

          k = 0.5000 0.5000 0.5000 (   208 PWs)   bands (ev):

     6.8294   7.8113   7.8113   7.8113  29.9929  29.9929  29.9929

     Writing all to output data dir ./work/POSCAR.save/

     init_run     :      0.19s CPU      0.20s WALL (       1 calls)
     electrons    :      0.11s CPU      0.13s WALL (       1 calls)

     Called by init_run:
     wfcinit      :      0.00s CPU      0.00s WALL (       1 calls)
     potinit      :      0.02s CPU      0.03s WALL (       1 calls)
     hinit0       :      0.15s CPU      0.15s WALL (       1 calls)

     Called by electrons:
     c_bands      :      0.10s CPU      0.13s WALL (       1 calls)
     v_of_rho     :      0.00s CPU      0.00s WALL (       1 calls)
     newd         :      0.00s CPU      0.00s WALL (       1 calls)
     PAW_pot      :      0.01s CPU      0.01s WALL (       1 calls)

     Called by c_bands:
     init_us_2    :      0.00s CPU      0.00s WALL (      46 calls)
     init_us_2:cp :      0.00s CPU      0.00s WALL (      46 calls)
     cegterg      :      0.08s CPU      0.08s WALL (      46 calls)

     Called by *egterg:
     cdiaghg      :      0.02s CPU      0.02s WALL (     425 calls)
     h_psi        :      0.06s CPU      0.06s WALL (     471 calls)
     s_psi        :      0.00s CPU      0.00s WALL (     471 calls)
     g_psi        :      0.00s CPU      0.00s WALL (     379 calls)

     Called by h_psi:
     h_psi:calbec :      0.00s CPU      0.00s WALL (     471 calls)
     vloc_psi     :      0.05s CPU      0.05s WALL (     471 calls)
     add_vuspsi   :      0.00s CPU      0.00s WALL (     471 calls)

     General routines
     calbec       :      0.00s CPU      0.00s WALL (     471 calls)
     fft          :      0.13s CPU      0.13s WALL (      13 calls)
     ffts         :      0.01s CPU      0.01s WALL (       1 calls)
     fftw         :      0.04s CPU      0.04s WALL (    4536 calls)
     interpolate  :      0.01s CPU      0.01s WALL (       1 calls)
     davcio       :      0.00s CPU      0.00s WALL (      92 calls)

     Parallel routines

     PWSCF        :      0.54s CPU      0.81s WALL


   This run was terminated on:   9:25:38  16Nov2023            

=------------------------------------------------------------------------------=
   JOB DONE.
=------------------------------------------------------------------------------=
