
     Program PWSCF v.7.1 starts on 16Nov2023 at  9:25:34 

     This program is part of the open-source Quantum ESPRESSO suite
     for quantum simulation of materials; please cite
         "P. Giannozzi et al., J. Phys.:Condens. Matter 21 395502 (2009);
         "P. Giannozzi et al., J. Phys.:Condens. Matter 29 465901 (2017);
         "P. Giannozzi et al., J. Chem. Phys. 152 154105 (2020);
          URL http://www.quantum-espresso.org", 
     in publications or presentations arising from this work. More details at
     http://www.quantum-espresso.org/quote

     Parallel version (MPI & OpenMP), running on      10 processor cores
     Number of MPI processes:                10
     Threads/MPI process:                     1

     MPI processes distributed on     1 nodes
     14952 MiB available memory on the printing compute node when the environment starts

     Waiting for input...
     Reading input from standard input

     Current dimensions of program PWSCF are:
     Max number of different atomic species (ntypx) = 10
     Max number of k-points (npk) =  40000
     Max angular momentum in pseudopotentials (lmaxx) =  4
     file N.pbe-n-kjpaw_psl.1.0.0.UPF: wavefunction(s)  2S renormalized
     Message from routine setup:
     using ibrav=0 with symmetry is DISCOURAGED, use correct ibrav instead

     K-points division:     npool     =       2
     R & G space division:  proc/nbgrp/npool/nimage =       5
     Subspace diagonalization in iterative solution of the eigenvalue problem:
     a serial algorithm will be used


     Parallelization info
     --------------------
     sticks:   dense  smooth     PW     G-vecs:    dense   smooth      PW
     Min          62      35     13                  833      347      77
     Max          64      36     14                  834      350      78
     Sum         317     177     69                 4169     1743     389

     Using Slab Decomposition



     bravais-lattice index     =            0
     lattice parameter (alat)  =       3.5149  a.u.
     unit-cell volume          =      43.4246 (a.u.)^3
     number of atoms/cell      =            1
     number of atomic types    =            1
     number of electrons       =         5.00
     number of Kohn-Sham states=            7
     kinetic-energy cutoff     =      44.0000  Ry
     charge density cutoff     =     320.0000  Ry
     scf convergence threshold =      7.3E-05
     mixing beta               =       0.7000
     number of iterations used =            8  plain     mixing
     Exchange-correlation= SLA  PW   PBX  PBC
                           (   1   4   3   4   0   0   0)

     celldm(1)=   3.514891  celldm(2)=   0.000000  celldm(3)=   0.000000
     celldm(4)=   0.000000  celldm(5)=   0.000000  celldm(6)=   0.000000

     crystal axes: (cart. coord. in units of alat)
               a(1) = (   1.000000   0.000000   0.000000 )  
               a(2) = (   0.000000   1.000000   0.000000 )  
               a(3) = (   0.000000   0.000000   1.000000 )  

     reciprocal axes: (cart. coord. in units 2 pi/alat)
               b(1) = (  1.000000  0.000000  0.000000 )  
               b(2) = (  0.000000  1.000000  0.000000 )  
               b(3) = (  0.000000  0.000000  1.000000 )  


     PseudoPot. # 1 for N  read from file:
     ./../../../pseudo/psl100_PBE/N.pbe-n-kjpaw_psl.1.0.0.UPF
     MD5 check sum: 2b8382c31569063ce7f0d1e419cba686
     Pseudo is Projector augmented-wave + core cor, Zval =  5.0
     Generated using 'atomic' code by A. Dal Corso  v.7.2
     Shape of augmentation charge: PSQ
     Using radial grid of 1085 points,  4 beta functions with: 
                l(1) =   0
                l(2) =   0
                l(3) =   1
                l(4) =   1
     Q(r) pseudized with 0 coefficients 


     atomic species   valence    mass     pseudopotential
        N              5.00    14.00650     N ( 1.00)

     48 Sym. Ops., with inversion, found



   Cartesian axes

     site n.     atom                  positions (alat units)
         1           N   tau(   1) = (   0.0000000   0.0000000   0.0000000  )

     number of k points=   165  Methfessel-Paxton smearing, width (Ry)=  0.0200

     Number of k-points >= 100: set verbosity='high' to print them.

     Dense  grid:     4169 G-vectors     FFT dimensions: (  24,  24,  24)

     Smooth grid:     1743 G-vectors     FFT dimensions: (  15,  15,  15)

     Estimated max dynamical RAM per process >       1.62 MB

     Estimated total dynamical RAM >      15.17 MB

     Check: negative core charge=   -0.000011

     Initial potential from superposition of free atoms

     starting charge       5.0000, renormalised to       5.0000
     Starting wfcs are    4 randomized atomic wfcs +    3 random wfcs
     Checking if some PAW data can be deallocated... 

     total cpu time spent up to now is        0.4 secs

     per-process dynamical memory:     8.2 Mb

     Self-consistent Calculation

     iteration #  1     ecut=    44.00 Ry     beta= 0.70
     Davidson diagonalization with overlap
     ethr =  1.00E-02,  avg # of iterations =  4.7

     Threshold (ethr) on eigenvalues was too large:
     Diagonalizing with lowered threshold

     Davidson diagonalization with overlap
     ethr =  5.61E-05,  avg # of iterations =  2.0

     total cpu time spent up to now is        0.8 secs

     total energy              =     -27.97814086 Ry
     estimated scf accuracy    <       0.00275419 Ry

     iteration #  2     ecut=    44.00 Ry     beta= 0.70
     Davidson diagonalization with overlap
     ethr =  5.51E-05,  avg # of iterations =  1.0

     total cpu time spent up to now is        1.0 secs

     total energy              =     -27.97835473 Ry
     estimated scf accuracy    <       0.00023787 Ry

     iteration #  3     ecut=    44.00 Ry     beta= 0.70
     Davidson diagonalization with overlap
     ethr =  4.76E-06,  avg # of iterations =  1.1

     total cpu time spent up to now is        1.2 secs

     End of self-consistent calculation

     Number of k-points >= 100: set verbosity='high' to print the bands.

     the Fermi energy is    11.1691 ev

!    total energy              =     -27.97836526 Ry
     total all-electron energy =      -109.277163 Ry
     estimated scf accuracy    <       0.00000310 Ry
     smearing contrib. (-TS)   =      -0.00020136 Ry
     internal energy E=F+TS    =     -27.97816391 Ry

     The total energy is F=E-TS. E is the sum of the following terms:
     one-electron contribution =       3.88206814 Ry
     hartree contribution      =       1.80942001 Ry
     xc contribution           =      -5.48572898 Ry
     ewald contribution        =     -20.18055332 Ry
     one-center paw contrib.   =      -8.00336976 Ry

     convergence has been achieved in   3 iterations

     Writing all to output data dir ./work/POSCAR.save/

     init_run     :      0.24s CPU      0.27s WALL (       1 calls)
     electrons    :      0.30s CPU      0.82s WALL (       1 calls)

     Called by init_run:
     wfcinit      :      0.01s CPU      0.02s WALL (       1 calls)
     potinit      :      0.02s CPU      0.04s WALL (       1 calls)
     hinit0       :      0.20s CPU      0.20s WALL (       1 calls)

     Called by electrons:
     c_bands      :      0.26s CPU      0.73s WALL (       4 calls)
     sum_band     :      0.02s CPU      0.04s WALL (       4 calls)
     v_of_rho     :      0.00s CPU      0.00s WALL (       4 calls)
     newd         :      0.00s CPU      0.00s WALL (       4 calls)
     PAW_pot      :      0.02s CPU      0.04s WALL (       4 calls)
     mix_rho      :      0.00s CPU      0.00s WALL (       4 calls)

     Called by c_bands:
     init_us_2    :      0.00s CPU      0.00s WALL (     747 calls)
     init_us_2:cp :      0.00s CPU      0.00s WALL (     747 calls)
     cegterg      :      0.16s CPU      0.24s WALL (     332 calls)

     Called by *egterg:
     cdiaghg      :      0.03s CPU      0.04s WALL (    1011 calls)
     h_psi        :      0.11s CPU      0.16s WALL (    1177 calls)
     s_psi        :      0.00s CPU      0.00s WALL (    1177 calls)
     g_psi        :      0.00s CPU      0.00s WALL (     762 calls)

     Called by h_psi:
     h_psi:calbec :      0.01s CPU      0.01s WALL (    1177 calls)
     vloc_psi     :      0.10s CPU      0.14s WALL (    1177 calls)
     add_vuspsi   :      0.00s CPU      0.00s WALL (    1177 calls)

     General routines
     calbec       :      0.01s CPU      0.02s WALL (    1509 calls)
     fft          :      0.18s CPU      0.18s WALL (      51 calls)
     ffts         :      0.02s CPU      0.02s WALL (       8 calls)
     fftw         :      0.10s CPU      0.15s WALL (   14884 calls)
     interpolate  :      0.02s CPU      0.02s WALL (       4 calls)

     Parallel routines

     PWSCF        :      0.62s CPU      1.55s WALL


   This run was terminated on:   9:25:36  16Nov2023            

=------------------------------------------------------------------------------=
   JOB DONE.
=------------------------------------------------------------------------------=
