
     Program PWSCF v.7.1 starts on 15May2024 at 22:42:32 

     This program is part of the open-source Quantum ESPRESSO suite
     for quantum simulation of materials; please cite
         "P. Giannozzi et al., J. Phys.:Condens. Matter 21 395502 (2009);
         "P. Giannozzi et al., J. Phys.:Condens. Matter 29 465901 (2017);
         "P. Giannozzi et al., J. Chem. Phys. 152 154105 (2020);
          URL http://www.quantum-espresso.org", 
     in publications or presentations arising from this work. More details at
     http://www.quantum-espresso.org/quote

     Parallel version (MPI & OpenMP), running on      10 processor cores
     Number of MPI processes:                10
     Threads/MPI process:                     1

     MPI processes distributed on     1 nodes
     14559 MiB available memory on the printing compute node when the environment starts

     Waiting for input...
     Reading input from standard input

     Current dimensions of program PWSCF are:
     Max number of different atomic species (ntypx) = 10
     Max number of k-points (npk) =  40000
     Max angular momentum in pseudopotentials (lmaxx) =  4
     file Ce.pbe-spdn-kjpaw_psl.1.0.0.UPF: wavefunction(s)  5D renormalized
     Message from routine setup:
     using ibrav=0 with symmetry is DISCOURAGED, use correct ibrav instead

     R & G space division:  proc/nbgrp/npool/nimage =      10
     Subspace diagonalization in iterative solution of the eigenvalue problem:
     a serial algorithm will be used


     Parallelization info
     --------------------
     sticks:   dense  smooth     PW     G-vecs:    dense   smooth      PW
     Min          66      55     17                 1288      962     173
     Max          67      56     18                 1291      963     176
     Sum         665     553    177                12893     9627    1743

     Using Slab Decomposition



     bravais-lattice index     =            0
     lattice parameter (alat)  =       6.8077  a.u.
     unit-cell volume          =     315.4962 (a.u.)^3
     number of atoms/cell      =            1
     number of atomic types    =            1
     number of electrons       =        11.00
     number of Kohn-Sham states=           26
     kinetic-energy cutoff     =      37.0000  Ry
     charge density cutoff     =     179.0000  Ry
     scf convergence threshold =      7.3E-05
     mixing beta               =       0.7000
     number of iterations used =            8  plain     mixing
     Exchange-correlation= SLA  PW   PBX  PBC
                           (   1   4   3   4   0   0   0)

     celldm(1)=   6.807663  celldm(2)=   0.000000  celldm(3)=   0.000000
     celldm(4)=   0.000000  celldm(5)=   0.000000  celldm(6)=   0.000000

     crystal axes: (cart. coord. in units of alat)
               a(1) = (   1.000000   0.000000   0.000000 )  
               a(2) = (   0.000000   1.000000   0.000000 )  
               a(3) = (   0.000000   0.000000   1.000000 )  

     reciprocal axes: (cart. coord. in units 2 pi/alat)
               b(1) = (  1.000000  0.000000  0.000000 )  
               b(2) = (  0.000000  1.000000  0.000000 )  
               b(3) = (  0.000000  0.000000  1.000000 )  


     PseudoPot. # 1 for Ce read from file:
     ./../../../../pseudo/psl100_PBE/Ce.pbe-spdn-kjpaw_psl.1.0.0.UPF
     MD5 check sum: 1a25380276e46fcecd5a173acdad072c
     Pseudo is Projector augmented-wave + core cor, Zval = 11.0
     Generated using 'atomic' code by A. Dal Corso  v.7.2
     Shape of augmentation charge: PSQ
     Using radial grid of 1255 points,  6 beta functions with: 
                l(1) =   0
                l(2) =   0
                l(3) =   1
                l(4) =   1
                l(5) =   2
                l(6) =   2
     Q(r) pseudized with 0 coefficients 


     atomic species   valence    mass     pseudopotential
        Ce            11.00   140.11600     Ce( 1.00)

     48 Sym. Ops., with inversion, found



   Cartesian axes

     site n.     atom                  positions (alat units)
         1           Ce  tau(   1) = (   0.0000000   0.0000000   0.0000000  )

     number of k points=    35  Methfessel-Paxton smearing, width (Ry)=  0.0200
                       cart. coord. in units 2pi/alat
        k(    1) = (   0.0000000   0.0000000   0.0000000), wk =   0.0027435
        k(    2) = (   0.0000000   0.0000000   0.1111111), wk =   0.0164609
        k(    3) = (   0.0000000   0.0000000   0.2222222), wk =   0.0164609
        k(    4) = (   0.0000000   0.0000000   0.3333333), wk =   0.0164609
        k(    5) = (   0.0000000   0.0000000   0.4444444), wk =   0.0164609
        k(    6) = (   0.0000000   0.1111111   0.1111111), wk =   0.0329218
        k(    7) = (   0.0000000   0.1111111   0.2222222), wk =   0.0658436
        k(    8) = (   0.0000000   0.1111111   0.3333333), wk =   0.0658436
        k(    9) = (   0.0000000   0.1111111   0.4444444), wk =   0.0658436
        k(   10) = (   0.0000000   0.2222222   0.2222222), wk =   0.0329218
        k(   11) = (   0.0000000   0.2222222   0.3333333), wk =   0.0658436
        k(   12) = (   0.0000000   0.2222222   0.4444444), wk =   0.0658436
        k(   13) = (   0.0000000   0.3333333   0.3333333), wk =   0.0329218
        k(   14) = (   0.0000000   0.3333333   0.4444444), wk =   0.0658436
        k(   15) = (   0.0000000   0.4444444   0.4444444), wk =   0.0329218
        k(   16) = (   0.1111111   0.1111111   0.1111111), wk =   0.0219479
        k(   17) = (   0.1111111   0.1111111   0.2222222), wk =   0.0658436
        k(   18) = (   0.1111111   0.1111111   0.3333333), wk =   0.0658436
        k(   19) = (   0.1111111   0.1111111   0.4444444), wk =   0.0658436
        k(   20) = (   0.1111111   0.2222222   0.2222222), wk =   0.0658436
        k(   21) = (   0.1111111   0.2222222   0.3333333), wk =   0.1316872
        k(   22) = (   0.1111111   0.2222222   0.4444444), wk =   0.1316872
        k(   23) = (   0.1111111   0.3333333   0.3333333), wk =   0.0658436
        k(   24) = (   0.1111111   0.3333333   0.4444444), wk =   0.1316872
        k(   25) = (   0.1111111   0.4444444   0.4444444), wk =   0.0658436
        k(   26) = (   0.2222222   0.2222222   0.2222222), wk =   0.0219479
        k(   27) = (   0.2222222   0.2222222   0.3333333), wk =   0.0658436
        k(   28) = (   0.2222222   0.2222222   0.4444444), wk =   0.0658436
        k(   29) = (   0.2222222   0.3333333   0.3333333), wk =   0.0658436
        k(   30) = (   0.2222222   0.3333333   0.4444444), wk =   0.1316872
        k(   31) = (   0.2222222   0.4444444   0.4444444), wk =   0.0658436
        k(   32) = (   0.3333333   0.3333333   0.3333333), wk =   0.0219479
        k(   33) = (   0.3333333   0.3333333   0.4444444), wk =   0.0658436
        k(   34) = (   0.3333333   0.4444444   0.4444444), wk =   0.0658436
        k(   35) = (   0.4444444   0.4444444   0.4444444), wk =   0.0219479

     Dense  grid:    12893 G-vectors     FFT dimensions: (  30,  30,  30)

     Smooth grid:     9627 G-vectors     FFT dimensions: (  27,  27,  27)

     Estimated max dynamical RAM per process >       7.20 MB

     Estimated total dynamical RAM >      72.03 MB

     Initial potential from superposition of free atoms

     starting charge      10.9735, renormalised to      11.0000
     Starting wfcs are   13 randomized atomic wfcs +   13 random wfcs
     Checking if some PAW data can be deallocated... 

     total cpu time spent up to now is        0.6 secs

     per-process dynamical memory:    14.3 Mb

     Self-consistent Calculation

     iteration #  1     ecut=    37.00 Ry     beta= 0.70
     Davidson diagonalization with overlap
     ethr =  1.00E-02,  avg # of iterations =  7.1

     Threshold (ethr) on eigenvalues was too large:
     Diagonalizing with lowered threshold

     Davidson diagonalization with overlap
     ethr =  2.70E-05,  avg # of iterations =  5.1

     total cpu time spent up to now is        1.9 secs

     total energy              =    -471.69074333 Ry
     estimated scf accuracy    <       0.00310600 Ry

     iteration #  2     ecut=    37.00 Ry     beta= 0.70
     Davidson diagonalization with overlap
     ethr =  2.82E-05,  avg # of iterations =  1.5

     total cpu time spent up to now is        2.3 secs

     total energy              =    -471.69148305 Ry
     estimated scf accuracy    <       0.00027317 Ry

     iteration #  3     ecut=    37.00 Ry     beta= 0.70
     Davidson diagonalization with overlap
     ethr =  2.48E-06,  avg # of iterations =  1.8

     total cpu time spent up to now is        2.7 secs

     End of self-consistent calculation

          k = 0.0000 0.0000 0.0000 (  1213 PWs)   bands (ev):

   -27.2616  -9.5961  -9.5961  -9.5961   4.8637   7.2090   7.2090  12.7131
    12.7131  12.7131  16.7586  16.7586  16.7586  20.2940  21.1837  21.1837
    21.1837  21.7206  21.7206  28.0678  31.6512  31.6512  31.6512  32.5960
    32.5960  32.5961

          k = 0.0000 0.0000 0.1111 (  1205 PWs)   bands (ev):

   -27.2527  -9.7036  -9.5870  -9.5870   5.0782   7.2700   7.4533  12.2629
    12.2629  12.7431  15.8964  17.2765  17.2765  19.3951  20.8943  21.5305
    21.5305  22.3852  23.7998  27.2945  29.8937  29.8937  29.9562  31.3809
    32.7610  33.4475

          k = 0.0000 0.0000 0.2222 (  1217 PWs)   bands (ev):

   -27.2301  -9.9649  -9.5639  -9.5639   5.6079   7.4334   8.1163  11.4275
    11.4275  12.8209  14.6537  17.7252  18.2380  18.2380  21.2010  22.5592
    22.5592  24.4186  26.0782  26.3271  26.4065  28.1953  28.1953  29.8175
    33.5539  34.1468

          k = 0.0000 0.0000 0.3333 (  1201 PWs)   bands (ev):

   -27.2042 -10.2452  -9.5374  -9.5374   6.2443   7.6380   8.7847  10.7241
    10.7241  12.9129  14.1867  16.5017  19.0653  19.0653  20.5863  23.8165
    23.8165  24.0236  25.1267  26.1953  27.4500  27.4500  28.8810  29.4866
    33.7110  34.2360

          k = 0.0000 0.0000 0.4444 (  1202 PWs)   bands (ev):

   -27.1871 -10.4197  -9.5200  -9.5200   6.7577   7.7850   8.9162  10.3411
    10.3411  12.9751  14.9240  15.8417  18.7179  19.5693  19.5693  23.6278
    24.1642  24.1642  24.6180  26.1395  28.6128  28.6128  30.8599  31.8124
    32.1404  32.1404

          k = 0.0000 0.1111 0.1111 (  1215 PWs)   bands (ev):

   -27.2439  -9.6993  -9.6885  -9.5780   5.2934   7.4227   7.6030  11.7704
    12.1991  12.4125  16.3510  16.4447  17.8136  19.3520  20.5153  21.8361
    21.8804  23.4876  24.6813  26.3017  28.3784  29.4640  30.6501  30.8153
    32.0270  32.9104

          k = 0.0000 0.1111 0.2222 (  1210 PWs)   bands (ev):

   -27.2213  -9.9539  -9.6689  -9.5550   5.8188   7.6198   8.2165  10.9306
    11.4621  12.4267  15.1146  17.2276  18.1336  18.8396  21.4262  22.5622
    22.7611  24.9618  24.9622  26.4550  26.7522  27.1114  29.5677  30.6097
    31.5748  33.8696

          k = 0.0000 0.1111 0.3333 (  1199 PWs)   bands (ev):

   -27.1954 -10.2326  -9.6405  -9.5286   6.4488   7.8330   8.6924  10.5309
    10.7723  12.5313  14.4691  16.9513  17.9815  19.7248  21.2897  22.9158
    23.2431  24.5918  24.9451  26.0300  27.5471  28.5889  28.6227  30.8395
    31.4511  34.2688

          k = 0.0000 0.1111 0.4444 (  1201 PWs)   bands (ev):

   -27.1784 -10.4062  -9.6219  -9.5113   6.9878   8.0080   8.4592  10.3935
    10.6221  12.6048  14.9513  16.3301  18.3447  19.2006  20.2871  22.6858
    23.1247  24.6889  26.0388  27.0660  28.1293  28.8755  29.4513  31.0530
    32.3301  32.7722

          k = 0.0000 0.2222 0.2222 (  1205 PWs)   bands (ev):

   -27.1990  -9.9370  -9.9131  -9.5324   6.3009   7.9171   8.6984  10.1736
    11.4447  11.7718  15.6282  16.0828  18.5597  20.0377  21.0960  23.4467
    23.5061  23.5501  24.5081  25.8346  27.3514  27.3799  29.5741  31.2033
    33.0297  33.8223

          k = 0.0000 0.2222 0.3333 (  1200 PWs)   bands (ev):

   -27.1733 -10.2005  -9.8918  -9.5064   6.8274   7.9370   9.0424  10.3525
    10.8973  11.7748  14.8773  16.6164  18.0359  20.8859  21.2538  22.5766
    22.6477  23.6125  25.0861  26.0684  27.2190  29.0762  30.5896  31.5579
    32.0523  33.8941

          k = 0.0000 0.2222 0.4444 (  1197 PWs)   bands (ev):

   -27.1564 -10.3717  -9.8704  -9.4894   7.3006   7.6875   8.9644  10.5326
    11.0449  11.8592  14.9150  17.3027  17.5246  18.9776  21.0901  22.2058
    22.2287  24.9413  26.8003  27.1348  27.5014  29.0342  29.6636  30.7954
    32.9721  33.3197

          k = 0.0000 0.3333 0.3333 (  1197 PWs)   bands (ev):

   -27.1478 -10.1716 -10.1542  -9.4809   6.9634   7.7449  10.2393  10.4508
    10.9836  11.1778  14.8339  16.1913  18.4768  20.5312  21.1265  21.5838
    23.5248  23.8202  23.9385  25.7424  29.5205  30.0007  30.5600  32.1338
    33.2850  33.4980

          k = 0.0000 0.3333 0.4444 (  1198 PWs)   bands (ev):

   -27.1311 -10.3320 -10.1382  -9.4642   6.8179   7.8336  10.4133  10.7038
    11.1983  11.4173  14.6479  16.8663  18.1445  18.9002  20.0450  21.9787
    22.6805  24.6027  25.5754  27.6898  28.1463  30.1823  30.4766  32.2924
    33.2760  33.7216

          k = 0.0000 0.4444 0.4444 (  1202 PWs)   bands (ev):

   -27.1145 -10.3069 -10.3043  -9.4476   6.4490   8.0473  10.8141  10.8413
    11.6406  11.6710  14.3812  17.2516  17.7672  19.1446  19.4550  19.6135
    23.4096  25.7561  27.1000  27.1001  28.2333  30.6736  31.0372  31.0937
    32.9854  33.0192

          k = 0.1111 0.1111 0.1111 (  1210 PWs)   bands (ev):

   -27.2351  -9.6948  -9.6789  -9.6789   5.5100   7.6623   7.6623  11.6516
    11.9127  11.9127  16.6901  17.0481  17.0481  19.9266  19.9266  21.5820
    22.7234  24.8606  24.8606  25.1153  29.2977  29.5640  29.5640  30.2829
    30.2829  32.4709

          k = 0.1111 0.1111 0.2222 (  1208 PWs)   bands (ev):

   -27.2126  -9.9430  -9.6641  -9.6546   6.0324   7.8238   8.2949  10.9599
    11.0021  11.9702  15.6371  17.5432  17.9444  18.8516  21.2570  22.3656
    23.2507  23.9215  25.5626  26.7097  27.1890  28.2093  28.6972  30.0813
    32.1250  32.2492

          k = 0.1111 0.1111 0.3333 (  1196 PWs)   bands (ev):

   -27.1868 -10.2201  -9.6358  -9.6266   6.6581   8.0364   8.6481  10.2264
    10.8733  12.0998  14.8607  17.3084  18.1158  19.3673  21.4454  22.0493
    23.7127  24.0110  25.4624  26.9699  27.0651  28.6831  28.7411  31.5372
    31.5873  32.4136

          k = 0.1111 0.1111 0.4444 (  1199 PWs)   bands (ev):

   -27.1698 -10.3928  -9.6172  -9.6083   7.2468   8.2045   8.2815   9.7820
    11.3329  12.1921  15.0557  16.7410  18.3484  19.5323  19.8992  21.2426
    24.3939  25.3754  25.6675  27.4827  27.4908  29.3062  29.3275  31.0845
    31.4238  31.9436

          k = 0.1111 0.2222 0.2222 (  1208 PWs)   bands (ev):

   -27.1903  -9.9262  -9.9024  -9.6350   6.5090   8.1523   8.7328  10.2309
    11.0372  11.2340  16.3734  16.5058  18.5931  19.6016  21.0616  22.1968
    22.8675  24.6923  24.7773  26.9623  27.2063  28.3449  29.6730  30.5323
    31.2918  31.7677

          k = 0.1111 0.2222 0.3333 (  1202 PWs)   bands (ev):

   -27.1647 -10.1883  -9.8814  -9.6074   7.0103   8.1798   9.0510   9.9445
    11.0278  11.3134  15.4478  17.0816  18.2843  19.8150  21.1847  22.0714
    23.0853  24.2524  24.7211  26.4323  27.8491  29.2987  30.1444  31.2998
    32.1992  32.6352

          k = 0.1111 0.2222 0.4444 (  1193 PWs)   bands (ev):

   -27.1478 -10.3587  -9.8601  -9.5892   7.4301   7.9609   9.0241   9.5952
    11.4280  11.9440  15.1697  17.6369  17.7729  18.7983  20.4357  21.4333
    23.6517  25.1638  26.3400  26.8388  28.2450  28.8896  29.4644  31.3328
    31.3955  32.2364

          k = 0.1111 0.3333 0.3333 (  1196 PWs)   bands (ev):

   -27.1393 -10.1596 -10.1424  -9.5803   7.0613   8.0809   9.8545   9.9533
    11.1059  11.2798  15.5314  16.4640  18.3534  19.7484  21.2223  22.3413
    23.2444  23.5852  24.8130  25.1241  29.8039  30.7499  31.0191  31.4125
    31.6091  32.2418

          k = 0.1111 0.3333 0.4444 (  1204 PWs)   bands (ev):

   -27.1226 -10.3193 -10.1266  -9.5625   6.8971   8.2190   9.7123   9.9882
    11.2901  12.3636  15.0582  16.8761  17.7811  18.9670  20.3473  21.9560
    23.4026  24.2777  25.7107  27.0598  28.2314  29.7305  31.1079  31.4736
    32.5960  33.2230

          k = 0.1111 0.4444 0.4444 (  1195 PWs)   bands (ev):

   -27.1061 -10.2945 -10.2919  -9.5449   6.5386   8.4654   9.8467   9.8506
    12.5086  12.6516  14.6325  16.5161  17.6301  19.3680  19.6507  20.2926
    24.0464  25.8280  26.5586  27.1877  27.6032  29.9373  30.5244  31.1415
    31.5601  33.7999

          k = 0.2222 0.2222 0.2222 (  1205 PWs)   bands (ev):

   -27.1681  -9.9085  -9.8753  -9.8753   6.9193   8.8092   8.8092  10.3229
    10.3229  10.5414  16.8760  17.7769  17.7769  20.6032  20.6032  20.7663
    22.7644  24.9831  24.9831  26.6720  28.9410  29.3317  29.3317  30.3139
    30.6981  30.6981

          k = 0.2222 0.2222 0.3333 (  1201 PWs)   bands (ev):

   -27.1427 -10.1572  -9.8641  -9.8441   7.2556   8.8300   8.9200   9.6708
    10.6020  11.2271  16.2471  17.3450  18.6713  19.7810  20.2543  22.0591
    23.2901  23.6803  25.1214  26.9799  28.2374  28.4925  30.4630  31.4168
    32.1527  32.4628

          k = 0.2222 0.2222 0.4444 (  1191 PWs)   bands (ev):

   -27.1260 -10.3253  -9.8432  -9.8236   7.4402   8.6633   8.7243   9.4591
    10.7647  12.7616  15.5530  16.8618  18.6190  19.4603  20.4038  20.5787
    24.6704  25.1834  25.4823  26.8945  28.2132  28.5564  29.3129  30.6476
    30.6725  33.8965

          k = 0.2222 0.3333 0.3333 (  1205 PWs)   bands (ev):

   -27.1176 -10.1291 -10.1125  -9.8229   7.2475   8.5738   9.0316   9.8410
    11.1314  11.6159  15.9952  16.9538  18.9638  19.4157  21.3872  21.4586
    23.6967  23.7741  24.4210  26.5726  27.7368  29.6572  30.6490  31.0604
    32.5751  32.7073

          k = 0.2222 0.3333 0.4444 (  1195 PWs)   bands (ev):

   -27.1010 -10.2869 -10.0969  -9.8026   7.1008   8.5430   8.8283   9.8446
    11.4481  13.2802  15.4982  15.9813  18.7933  19.5251  20.6688  21.2140
    23.9714  24.9820  25.8602  26.6057  27.6383  28.5044  28.9638  31.3029
    31.7948  33.3897

          k = 0.2222 0.4444 0.4444 (  1196 PWs)   bands (ev):

   -27.0846 -10.2627 -10.2602  -9.7827   6.7873   8.6370   8.7249   9.7932
    13.1885  13.7149  14.9619  15.3647  18.1159  19.9716  20.0331  20.9911
    25.4676  25.8026  25.9833  26.6365  27.4739  27.6237  29.2708  29.4810
    31.4381  32.5693

          k = 0.3333 0.3333 0.3333 (  1205 PWs)   bands (ev):

   -27.0926 -10.1006 -10.0780 -10.0780   7.3451   8.3105   8.3105  11.2256
    11.2256  12.1018  14.9945  18.3262  18.3262  20.1397  21.1495  21.1495
    24.0447  24.0447  24.6688  25.7347  28.2180  29.2164  29.2164  30.8162
    32.0840  32.0840

          k = 0.3333 0.3333 0.4444 (  1193 PWs)   bands (ev):

   -27.0762 -10.2496 -10.0696 -10.0553   7.2630   7.9147   8.2558  11.2981
    11.8123  13.8498  14.3899  16.4639  19.2616  20.3194  20.5935  21.0090
    24.4455  24.9762  25.6741  25.8505  27.7163  27.9886  28.8811  30.2369
    30.9403  33.2564

          k = 0.3333 0.4444 0.4444 (  1192 PWs)   bands (ev):

   -27.0599 -10.2262 -10.2238 -10.0398   7.1200   7.8536   7.9024  11.6127
    13.4881  13.6479  14.4630  16.1439  17.9843  20.7198  20.9299  21.3274
    24.0271  25.8744  25.9100  26.5122  27.1874  28.1792  28.5285  28.5587
    31.8715  31.9556

          k = 0.4444 0.4444 0.4444 (  1178 PWs)   bands (ev):

   -27.0437 -10.2030 -10.1998 -10.1998   7.3424   7.4723   7.4723  12.8929
    13.6131  13.6131  15.0190  16.5866  16.5866  21.4211  21.4783  21.4783
    22.6858  26.2240  26.2240  26.9390  27.1464  27.7379  27.7379  29.5338
    32.2805  32.2805

     the Fermi energy is     7.9979 ev

!    total energy              =    -471.69152613 Ry
     total all-electron energy =    -17721.216255 Ry
     estimated scf accuracy    <       0.00001252 Ry
     smearing contrib. (-TS)   =      -0.00069491 Ry
     internal energy E=F+TS    =    -471.69083123 Ry

     The total energy is F=E-TS. E is the sum of the following terms:
     one-electron contribution =     -13.07015633 Ry
     hartree contribution      =      10.60828245 Ry
     xc contribution           =     -73.02212271 Ry
     ewald contribution        =     -50.43037631 Ry
     one-center paw contrib.   =    -345.77645833 Ry

     convergence has been achieved in   3 iterations

     Writing all to output data dir ./work/POSCAR.save/

     init_run     :      0.30s CPU      0.32s WALL (       1 calls)
     electrons    :      1.72s CPU      2.19s WALL (       1 calls)

     Called by init_run:
     wfcinit      :      0.08s CPU      0.08s WALL (       1 calls)
     potinit      :      0.08s CPU      0.09s WALL (       1 calls)
     hinit0       :      0.13s CPU      0.13s WALL (       1 calls)

     Called by electrons:
     c_bands      :      1.42s CPU      1.82s WALL (       4 calls)
     sum_band     :      0.18s CPU      0.19s WALL (       4 calls)
     v_of_rho     :      0.00s CPU      0.00s WALL (       4 calls)
     newd         :      0.01s CPU      0.01s WALL (       4 calls)
     PAW_pot      :      0.13s CPU      0.16s WALL (       4 calls)
     mix_rho      :      0.00s CPU      0.00s WALL (       4 calls)

     Called by c_bands:
     init_us_2    :      0.01s CPU      0.01s WALL (     315 calls)
     init_us_2:cp :      0.01s CPU      0.01s WALL (     315 calls)
     cegterg      :      1.39s CPU      1.45s WALL (     140 calls)

     Called by *egterg:
     cdiaghg      :      0.37s CPU      0.39s WALL (     646 calls)
     h_psi        :      0.90s CPU      0.94s WALL (     716 calls)
     s_psi        :      0.01s CPU      0.01s WALL (     716 calls)
     g_psi        :      0.01s CPU      0.01s WALL (     541 calls)

     Called by h_psi:
     h_psi:calbec :      0.03s CPU      0.03s WALL (     716 calls)
     vloc_psi     :      0.86s CPU      0.89s WALL (     716 calls)
     add_vuspsi   :      0.01s CPU      0.01s WALL (     716 calls)

     General routines
     calbec       :      0.04s CPU      0.04s WALL (     856 calls)
     fft          :      0.11s CPU      0.11s WALL (      51 calls)
     ffts         :      0.05s CPU      0.05s WALL (       8 calls)
     fftw         :      0.94s CPU      0.98s WALL (   25706 calls)
     interpolate  :      0.05s CPU      0.05s WALL (       4 calls)

     Parallel routines

     PWSCF        :      2.19s CPU      3.20s WALL


   This run was terminated on:  22:42:35  15May2024            

=------------------------------------------------------------------------------=
   JOB DONE.
=------------------------------------------------------------------------------=
