
     Program PWSCF v.7.1 starts on 15May2024 at 22:42:36 

     This program is part of the open-source Quantum ESPRESSO suite
     for quantum simulation of materials; please cite
         "P. Giannozzi et al., J. Phys.:Condens. Matter 21 395502 (2009);
         "P. Giannozzi et al., J. Phys.:Condens. Matter 29 465901 (2017);
         "P. Giannozzi et al., J. Chem. Phys. 152 154105 (2020);
          URL http://www.quantum-espresso.org", 
     in publications or presentations arising from this work. More details at
     http://www.quantum-espresso.org/quote

     Parallel version (MPI & OpenMP), running on      10 processor cores
     Number of MPI processes:                10
     Threads/MPI process:                     1

     MPI processes distributed on     1 nodes
     14558 MiB available memory on the printing compute node when the environment starts

     Waiting for input...
     Reading input from standard input

     Current dimensions of program PWSCF are:
     Max number of different atomic species (ntypx) = 10
     Max number of k-points (npk) =  40000
     Max angular momentum in pseudopotentials (lmaxx) =  4

     Atomic positions and unit cell read from directory:
     ./work/POSCAR.save/

     file Ce.pbe-spdn-kjpaw_psl.1.0.0.UPF: wavefunction(s)  5D renormalized
     Message from routine setup:
     using ibrav=0 with symmetry is DISCOURAGED, use correct ibrav instead

     R & G space division:  proc/nbgrp/npool/nimage =      10
     Subspace diagonalization in iterative solution of the eigenvalue problem:
     a serial algorithm will be used


     Parallelization info
     --------------------
     sticks:   dense  smooth     PW     G-vecs:    dense   smooth      PW
     Min          66      55     17                 1288      962     173
     Max          67      56     18                 1291      963     176
     Sum         665     553    177                12893     9627    1743

     Using Slab Decomposition



     bravais-lattice index     =            0
     lattice parameter (alat)  =       6.8077  a.u.
     unit-cell volume          =     315.4962 (a.u.)^3
     number of atoms/cell      =            1
     number of atomic types    =            1
     number of electrons       =        11.00
     number of Kohn-Sham states=           26
     kinetic-energy cutoff     =      37.0000  Ry
     charge density cutoff     =     179.0000  Ry
     Exchange-correlation= SLA  PW   PBX  PBC
                           (   1   4   3   4   0   0   0)

     celldm(1)=   6.807663  celldm(2)=   0.000000  celldm(3)=   0.000000
     celldm(4)=   0.000000  celldm(5)=   0.000000  celldm(6)=   0.000000

     crystal axes: (cart. coord. in units of alat)
               a(1) = (   1.000000   0.000000   0.000000 )  
               a(2) = (   0.000000   1.000000   0.000000 )  
               a(3) = (   0.000000   0.000000   1.000000 )  

     reciprocal axes: (cart. coord. in units 2 pi/alat)
               b(1) = (  1.000000  0.000000  0.000000 )  
               b(2) = (  0.000000  1.000000  0.000000 )  
               b(3) = (  0.000000  0.000000  1.000000 )  


     PseudoPot. # 1 for Ce read from file:
     ./../../../../pseudo/psl100_PBE/Ce.pbe-spdn-kjpaw_psl.1.0.0.UPF
     MD5 check sum: 1a25380276e46fcecd5a173acdad072c
     Pseudo is Projector augmented-wave + core cor, Zval = 11.0
     Generated using 'atomic' code by A. Dal Corso  v.7.2
     Shape of augmentation charge: PSQ
     Using radial grid of 1255 points,  6 beta functions with: 
                l(1) =   0
                l(2) =   0
                l(3) =   1
                l(4) =   1
                l(5) =   2
                l(6) =   2
     Q(r) pseudized with 0 coefficients 


     atomic species   valence    mass     pseudopotential
        Ce            11.00   140.11600     Ce( 1.00)

     48 Sym. Ops., with inversion, found



   Cartesian axes

     site n.     atom                  positions (alat units)
         1           Ce  tau(   1) = (   0.0000000   0.0000000   0.0000000  )

     number of k points=    91  Methfessel-Paxton smearing, width (Ry)=  0.0200
                       cart. coord. in units 2pi/alat
        k(    1) = (   0.0000000   0.5000000   0.5000000), wk =   0.0219780
        k(    2) = (   0.0500000   0.5000000   0.5000000), wk =   0.0219780
        k(    3) = (   0.1000000   0.5000000   0.5000000), wk =   0.0219780
        k(    4) = (   0.1500000   0.5000000   0.5000000), wk =   0.0219780
        k(    5) = (   0.2000000   0.5000000   0.5000000), wk =   0.0219780
        k(    6) = (   0.2500000   0.5000000   0.5000000), wk =   0.0219780
        k(    7) = (   0.3000000   0.5000000   0.5000000), wk =   0.0219780
        k(    8) = (   0.3500000   0.5000000   0.5000000), wk =   0.0219780
        k(    9) = (   0.4000000   0.5000000   0.5000000), wk =   0.0219780
        k(   10) = (   0.4500000   0.5000000   0.5000000), wk =   0.0219780
        k(   11) = (   0.5000000   0.5000000   0.5000000), wk =   0.0219780
        k(   12) = (   0.4750000   0.4750000   0.4750000), wk =   0.0219780
        k(   13) = (   0.4500000   0.4500000   0.4500000), wk =   0.0219780
        k(   14) = (   0.4250000   0.4250000   0.4250000), wk =   0.0219780
        k(   15) = (   0.4000000   0.4000000   0.4000000), wk =   0.0219780
        k(   16) = (   0.3750000   0.3750000   0.3750000), wk =   0.0219780
        k(   17) = (   0.3500000   0.3500000   0.3500000), wk =   0.0219780
        k(   18) = (   0.3250000   0.3250000   0.3250000), wk =   0.0219780
        k(   19) = (   0.3000000   0.3000000   0.3000000), wk =   0.0219780
        k(   20) = (   0.2750000   0.2750000   0.2750000), wk =   0.0219780
        k(   21) = (   0.2500000   0.2500000   0.2500000), wk =   0.0219780
        k(   22) = (   0.2250000   0.2250000   0.2250000), wk =   0.0219780
        k(   23) = (   0.2000000   0.2000000   0.2000000), wk =   0.0219780
        k(   24) = (   0.1750000   0.1750000   0.1750000), wk =   0.0219780
        k(   25) = (   0.1500000   0.1500000   0.1500000), wk =   0.0219780
        k(   26) = (   0.1250000   0.1250000   0.1250000), wk =   0.0219780
        k(   27) = (   0.1000000   0.1000000   0.1000000), wk =   0.0219780
        k(   28) = (   0.0750000   0.0750000   0.0750000), wk =   0.0219780
        k(   29) = (   0.0500000   0.0500000   0.0500000), wk =   0.0219780
        k(   30) = (   0.0250000   0.0250000   0.0250000), wk =   0.0219780
        k(   31) = (   0.0000000   0.0000000   0.0000000), wk =   0.0219780
        k(   32) = (   0.0500000   0.0000000   0.0000000), wk =   0.0219780
        k(   33) = (   0.1000000   0.0000000   0.0000000), wk =   0.0219780
        k(   34) = (   0.1500000   0.0000000   0.0000000), wk =   0.0219780
        k(   35) = (   0.2000000   0.0000000   0.0000000), wk =   0.0219780
        k(   36) = (   0.2500000   0.0000000   0.0000000), wk =   0.0219780
        k(   37) = (   0.3000000   0.0000000   0.0000000), wk =   0.0219780
        k(   38) = (   0.3500000   0.0000000   0.0000000), wk =   0.0219780
        k(   39) = (   0.4000000   0.0000000   0.0000000), wk =   0.0219780
        k(   40) = (   0.4500000   0.0000000   0.0000000), wk =   0.0219780
        k(   41) = (   0.5000000   0.0000000   0.0000000), wk =   0.0219780
        k(   42) = (   0.5000000   0.0500000   0.0000000), wk =   0.0219780
        k(   43) = (   0.5000000   0.1000000   0.0000000), wk =   0.0219780
        k(   44) = (   0.5000000   0.1500000   0.0000000), wk =   0.0219780
        k(   45) = (   0.5000000   0.2000000   0.0000000), wk =   0.0219780
        k(   46) = (   0.5000000   0.2500000   0.0000000), wk =   0.0219780
        k(   47) = (   0.5000000   0.3000000   0.0000000), wk =   0.0219780
        k(   48) = (   0.5000000   0.3500000   0.0000000), wk =   0.0219780
        k(   49) = (   0.5000000   0.4000000   0.0000000), wk =   0.0219780
        k(   50) = (   0.5000000   0.4500000   0.0000000), wk =   0.0219780
        k(   51) = (   0.5000000   0.5000000   0.0000000), wk =   0.0219780
        k(   52) = (   0.4750000   0.4750000   0.0000000), wk =   0.0219780
        k(   53) = (   0.4500000   0.4500000   0.0000000), wk =   0.0219780
        k(   54) = (   0.4250000   0.4250000   0.0000000), wk =   0.0219780
        k(   55) = (   0.4000000   0.4000000   0.0000000), wk =   0.0219780
        k(   56) = (   0.3750000   0.3750000   0.0000000), wk =   0.0219780
        k(   57) = (   0.3500000   0.3500000   0.0000000), wk =   0.0219780
        k(   58) = (   0.3250000   0.3250000   0.0000000), wk =   0.0219780
        k(   59) = (   0.3000000   0.3000000   0.0000000), wk =   0.0219780
        k(   60) = (   0.2750000   0.2750000   0.0000000), wk =   0.0219780
        k(   61) = (   0.2500000   0.2500000   0.0000000), wk =   0.0219780
        k(   62) = (   0.2250000   0.2250000   0.0000000), wk =   0.0219780
        k(   63) = (   0.2000000   0.2000000   0.0000000), wk =   0.0219780
        k(   64) = (   0.1750000   0.1750000   0.0000000), wk =   0.0219780
        k(   65) = (   0.1500000   0.1500000   0.0000000), wk =   0.0219780
        k(   66) = (   0.1250000   0.1250000   0.0000000), wk =   0.0219780
        k(   67) = (   0.1000000   0.1000000   0.0000000), wk =   0.0219780
        k(   68) = (   0.0750000   0.0750000   0.0000000), wk =   0.0219780
        k(   69) = (   0.0500000   0.0500000   0.0000000), wk =   0.0219780
        k(   70) = (   0.0250000   0.0250000   0.0000000), wk =   0.0219780
        k(   71) = (   0.0000000   0.0000000   0.0000000), wk =   0.0219780
        k(   72) = (   0.0250000   0.0250000   0.0250000), wk =   0.0219780
        k(   73) = (   0.0500000   0.0500000   0.0500000), wk =   0.0219780
        k(   74) = (   0.0750000   0.0750000   0.0750000), wk =   0.0219780
        k(   75) = (   0.1000000   0.1000000   0.1000000), wk =   0.0219780
        k(   76) = (   0.1250000   0.1250000   0.1250000), wk =   0.0219780
        k(   77) = (   0.1500000   0.1500000   0.1500000), wk =   0.0219780
        k(   78) = (   0.1750000   0.1750000   0.1750000), wk =   0.0219780
        k(   79) = (   0.2000000   0.2000000   0.2000000), wk =   0.0219780
        k(   80) = (   0.2250000   0.2250000   0.2250000), wk =   0.0219780
        k(   81) = (   0.2500000   0.2500000   0.2500000), wk =   0.0219780
        k(   82) = (   0.2750000   0.2750000   0.2750000), wk =   0.0219780
        k(   83) = (   0.3000000   0.3000000   0.3000000), wk =   0.0219780
        k(   84) = (   0.3250000   0.3250000   0.3250000), wk =   0.0219780
        k(   85) = (   0.3500000   0.3500000   0.3500000), wk =   0.0219780
        k(   86) = (   0.3750000   0.3750000   0.3750000), wk =   0.0219780
        k(   87) = (   0.4000000   0.4000000   0.4000000), wk =   0.0219780
        k(   88) = (   0.4250000   0.4250000   0.4250000), wk =   0.0219780
        k(   89) = (   0.4500000   0.4500000   0.4500000), wk =   0.0219780
        k(   90) = (   0.4750000   0.4750000   0.4750000), wk =   0.0219780
        k(   91) = (   0.5000000   0.5000000   0.5000000), wk =   0.0219780

     Dense  grid:    12893 G-vectors     FFT dimensions: (  30,  30,  30)

     Smooth grid:     9627 G-vectors     FFT dimensions: (  27,  27,  27)

     Estimated max dynamical RAM per process >       5.20 MB

     Estimated total dynamical RAM >      51.96 MB

     The potential is recalculated from file :
     ./work/POSCAR.save/charge-density

     Starting wfcs are   13 randomized atomic wfcs +   13 random wfcs
     Checking if some PAW data can be deallocated... 

     Band Structure Calculation
     Davidson diagonalization with overlap

     ethr =  6.64E-07,  avg # of iterations = 19.4

     total cpu time spent up to now is        5.0 secs

     End of band structure calculation

          k = 0.0000 0.5000 0.5000 (  1180 PWs)   bands (ev):

   -27.1158 -10.3282 -10.3282  -9.4473   6.3519   8.1093  10.7983  10.7983
    11.8885  11.8885  14.3181  17.5364  17.9324  18.8089  18.8089  19.3038
    23.6774  26.4177  26.4177  28.6686  29.1628  29.1628  30.1566  30.2044
    33.8317  33.8317

          k = 0.0500 0.5000 0.5000 (  1204 PWs)   bands (ev):

   -27.1141 -10.3256 -10.3256  -9.4678   6.3707   8.1985  10.4887  10.4887
    12.2132  12.2132  14.3225  17.2079  17.9334  18.8621  18.8621  19.5824
    23.7957  26.4314  26.4314  28.5580  28.9921  28.9921  30.0494  30.2283
    33.5640  34.0740

          k = 0.1000 0.5000 0.5000 (  1204 PWs)   bands (ev):

   -27.1090 -10.3181 -10.3181  -9.5267   6.4263   8.4633   9.9463   9.9463
    12.7974  12.7974  14.3356  16.5422  17.9341  19.0218  19.0218  20.0898
    24.1586  26.4716  26.4716  28.2331  28.5701  28.5701  29.7650  30.2996
    31.9288  34.1850

          k = 0.1500 0.5000 0.5000 (  1196 PWs)   bands (ev):

   -27.1010 -10.3062 -10.3062  -9.6169   6.5166   8.8950   9.3970   9.3970
    13.4059  13.4059  14.3561  15.8066  17.9270  19.2874  19.2874  20.5509
    24.7701  26.5342  26.5342  27.6894  28.0516  28.0516  29.3800  30.3755
    30.4165  33.6324

          k = 0.2000 0.5000 0.5000 (  1196 PWs)   bands (ev):

   -27.0909 -10.2912 -10.2912  -9.7282   6.6372   8.8886   8.8886   9.4803
    13.9782  13.9782  14.3823  15.0842  17.8974  19.6520  19.6520  20.9047
    25.6001  26.6084  26.6084  26.8717  27.5521  27.5521  28.9629  29.1067
    30.5760  33.1043

          k = 0.2500 0.5000 0.5000 (  1200 PWs)   bands (ev):

   -27.0796 -10.2745 -10.2745  -9.8487   6.7814   8.4396   8.4396  10.2020
    14.4105  14.4116  14.4853  14.4853  17.8206  20.0948  20.0948  21.1640
    25.7747  26.5838  26.6575  26.6575  27.1727  27.1727  28.2224  28.5606
    30.7726  32.6595

          k = 0.3000 0.5000 0.5000 (  1204 PWs)   bands (ev):

   -27.0684 -10.2577 -10.2577  -9.9663   6.9392   8.0606   8.0606  11.0395
    13.8092  14.4413  14.9108  14.9108  17.6573  20.5737  20.5737  21.3546
    24.5868  26.5894  26.5894  27.0528  27.0528  27.6224  27.6337  28.2030
    30.9970  32.3600

          k = 0.3500 0.5000 0.5000 (  1188 PWs)   bands (ev):

   -27.0581 -10.2425 -10.2425 -10.0700   7.0961   7.7589   7.7589  11.9675
    13.3021  14.4685  15.2465  15.2465  17.3527  21.0255  21.0255  21.4947
    23.5172  26.4987  26.4987  27.1314  27.1314  27.1934  27.9093  28.6195
    31.2332  32.3141

          k = 0.4000 0.5000 0.5000 (  1176 PWs)   bands (ev):

   -27.0500 -10.2303 -10.2303 -10.1508   7.2330   7.5398   7.5398  12.9127
    12.9503  14.4903  15.4890  15.4890  16.8561  21.3821  21.3821  21.5928
    22.7029  26.5200  26.5200  26.8930  27.2723  27.2723  27.6916  29.3414
    31.4545  32.7019

          k = 0.4500 0.5000 0.5000 (  1208 PWs)   bands (ev):

   -27.0448 -10.2225 -10.2225 -10.2022   7.3281   7.4069   7.4069  12.6652
    13.9156  14.5043  15.6358  15.6358  16.1837  21.5999  21.5999  21.6516
    22.2120  26.6067  26.6067  26.7120  27.4307  27.4307  27.5577  29.6882
    31.6200  32.0087

          k = 0.5000 0.5000 0.5000 (  1208 PWs)   bands (ev):

   -27.0430 -10.2198 -10.2198 -10.2198   7.3623   7.3623   7.3623  12.5800
    14.5092  14.5092  15.6850  15.6850  15.6850  21.6713  21.6713  21.6713
    22.0513  26.6514  26.6514  26.6514  27.5127  27.5127  27.5127  29.7758
    31.6827  31.6827

          k = 0.4750 0.4750 0.4750 (  1208 PWs)   bands (ev):

   -27.0443 -10.2172 -10.2165 -10.2165   7.3578   7.3850   7.3850  12.6442
    14.2431  14.2431  15.5371  15.9528  15.9528  21.6273  21.6273  21.6291
    22.1796  26.5763  26.5763  26.7576  27.3810  27.5384  27.5384  29.7184
    31.8238  31.8238

          k = 0.4500 0.4500 0.4500 (  1184 PWs)   bands (ev):

   -27.0484 -10.2093 -10.2067 -10.2067   7.3466   7.4527   7.4527  12.8332
    13.7334  13.7334  15.1349  16.4646  16.4646  21.4681  21.5081  21.5081
    22.5723  26.3108  26.3108  27.0368  27.0587  27.6849  27.6849  29.5713
    32.1894  32.1894

          k = 0.4250 0.4250 0.4250 (  1178 PWs)   bands (ev):

   -27.0550 -10.1963 -10.1905 -10.1905   7.3340   7.5645   7.5645  13.1373
    13.1769  13.1769  14.5654  17.0119  17.0119  21.2146  21.3468  21.3468
    23.1506  25.8749  25.8749  26.5727  27.5061  27.9804  27.9804  29.3977
    32.4677  32.4677

          k = 0.4000 0.4000 0.4000 (  1196 PWs)   bands (ev):

   -27.0641 -10.1781 -10.1683 -10.1683   7.3264   7.7189   7.7189  12.6189
    12.6189  13.5386  13.9124  17.5266  17.5266  20.9144  21.1894  21.1894
    23.8271  25.3531  25.3531  26.0570  27.9986  28.3645  28.3645  29.3098
    32.2054  32.2054

          k = 0.3750 0.3750 0.3750 (  1202 PWs)   bands (ev):

   -27.0755 -10.1548 -10.1403 -10.1403   7.3279   7.9131   7.9131  12.0747
    12.0747  13.2112  14.0421  17.9539  17.9539  20.6028  21.0893  21.0893
    24.5444  24.8146  24.8146  25.5283  28.2902  28.7590  28.7590  29.5576
    31.9750  31.9750

          k = 0.3500 0.3500 0.3500 (  1196 PWs)   bands (ev):

   -27.0887 -10.1263 -10.1069 -10.1069   7.3378   8.1427   8.1427  11.5538
    11.5538  12.5332  14.5979  18.2359  18.2359  20.3093  21.0917  21.0917
    24.3181  24.3181  25.0078  25.2661  28.2819  29.0782  29.0782  30.2370
    31.9572  31.9572

          k = 0.3250 0.3250 0.3250 (  1205 PWs)   bands (ev):

   -27.1037 -10.0928 -10.0687 -10.0687   7.3487   8.3997   8.3997  11.0659
    11.0659  11.8984  15.1932  18.3421  18.3421  20.0655  21.1839  21.1839
    23.9379  23.9379  24.5069  25.9638  28.1840  29.2620  29.2620  31.1279
    32.1835  32.1835

          k = 0.3000 0.3000 0.3000 (  1196 PWs)   bands (ev):

   -27.1198 -10.0548 -10.0265 -10.0265   7.3429   8.6669   8.6669  10.6284
    10.6284  11.3439  15.7849  18.3001  18.3001  19.9150  21.2506  21.2506
    23.7829  23.7829  24.0328  26.5932  28.1136  29.3277  29.3277  32.0800
    32.5352  32.5352

          k = 0.2750 0.2750 0.2750 (  1196 PWs)   bands (ev):

   -27.1369 -10.0124  -9.9811  -9.9811   7.2924   8.8989   8.8989  10.2855
    10.2855  10.9101  16.3073  18.1669  18.1669  19.9235  21.1628  21.1628
    23.5895  23.9390  23.9390  27.0268  28.1861  29.3368  29.3368  31.9604
    32.5322  32.5322

          k = 0.2500 0.2500 0.2500 (  1196 PWs)   bands (ev):

   -27.1545  -9.9665  -9.9335  -9.9335   7.1661   8.9822   8.9822  10.1480
    10.1480  10.6363  16.6796  17.9899  17.9899  20.1709  20.9290  20.9290
    23.1800  24.3576  24.3576  27.0681  28.5222  29.3356  29.3356  30.9649
    31.7728  31.7728

          k = 0.2250 0.2250 0.2250 (  1205 PWs)   bands (ev):

   -27.1721  -9.9179  -9.8847  -9.8847   6.9490   8.8347   8.8347  10.2942
    10.2942  10.5422  16.8630  17.7982  17.7982  20.6379  20.6379  20.6945
    22.8062  24.9159  24.9159  26.7296  28.9110  29.3336  29.3336  30.3419
    30.8020  30.8020

          k = 0.2000 0.2000 0.2000 (  1211 PWs)   bands (ev):

   -27.1892  -9.8678  -9.8360  -9.8360   6.6567   8.5692   8.5692  10.6052
    10.6052  10.6140  16.8978  17.6082  17.6082  20.3570  20.3570  21.4507
    22.4695  25.4954  25.4954  26.0733  29.0173  29.2344  29.2344  30.0127
    30.0127  30.4057

          k = 0.1750 0.1750 0.1750 (  1210 PWs)   bands (ev):

   -27.2056  -9.8173  -9.7887  -9.7887   6.3243   8.2843   8.2843  10.8153
    10.9747  10.9747  16.8534  17.4290  17.4290  20.1262  20.1262  22.1708
    22.3630  25.2050  25.9191  25.9191  28.8311  28.8311  28.9928  29.8121
    29.8121  30.9093

          k = 0.1500 0.1500 0.1500 (  1210 PWs)   bands (ev):

   -27.2207  -9.7683  -9.7440  -9.7440   5.9868   8.0157   8.0157  11.1061
    11.3562  11.3562  16.7822  17.2657  17.2657  19.9715  19.9715  21.9109
    23.3382  24.2892  25.8676  25.8676  28.7218  28.7218  29.0423  29.9250
    29.9250  31.5202

          k = 0.1250 0.1250 0.1250 (  1216 PWs)   bands (ev):

   -27.2342  -9.7224  -9.7033  -9.7033   5.6704   7.7776   7.7776  11.4503
    11.7232  11.7232  16.7161  17.1211  17.1211  19.9129  19.9129  21.6902
    23.2109  24.5337  25.2898  25.2898  29.1742  29.1742  29.1817  30.1362
    30.1362  32.1386

          k = 0.1000 0.1000 0.1000 (  1213 PWs)   bands (ev):

   -27.2458  -9.6815  -9.6680  -9.6680   5.3932   7.5767   7.5767  11.8136
    12.0545  12.0545  16.6749  16.9976  16.9976  19.9658  19.9658  21.5092
    22.3344  24.4970  24.4970  25.5903  29.4120  29.9086  29.9086  30.4168
    30.4168  32.7213

          k = 0.0750 0.0750 0.0750 (  1213 PWs)   bands (ev):

   -27.2551  -9.6473  -9.6392  -9.6392   5.1673   7.4171   7.4171  12.1599
    12.3317  12.3317  16.6690  16.8973  16.8973  20.1404  20.1404  21.3681
    21.5362  23.6686  23.6686  26.5986  29.7635  30.6523  30.6523  30.8619
    30.8619  33.2241

          k = 0.0500 0.0500 0.0500 (  1213 PWs)   bands (ev):

   -27.2619  -9.6216  -9.6178  -9.6178   5.0007   7.3014   7.3014  12.4498
    12.5401  12.5401  16.6974  16.8229  16.8229  20.4387  20.4387  20.8844
    21.2672  22.8752  22.8752  27.4148  30.3052  31.0675  31.0675  31.7369
    31.7369  33.3799

          k = 0.0250 0.0250 0.0250 (  1210 PWs)   bands (ev):

   -27.2660  -9.6056  -9.6046  -9.6046   4.8988   7.2314   7.2314  12.6441
    12.6690  12.6690  16.7402  16.7770  16.7770  20.4453  20.8456  20.8456
    21.2066  22.1626  22.1626  27.9127  31.0626  31.4429  31.4429  32.6754
    32.6754  32.8658

          k = 0.0000 0.0000 0.0000 (  1213 PWs)   bands (ev):

   -27.2674  -9.6002  -9.6002  -9.6002   4.8645   7.2079   7.2079  12.7126
    12.7126  12.7126  16.7614  16.7614  16.7614  20.2879  21.1864  21.1864
    21.1864  21.7188  21.7188  28.0719  31.6543  31.6543  31.6543  32.5930
    32.5930  32.5930

          k = 0.0500 0.0000 0.0000 (  1213 PWs)   bands (ev):

   -27.2656  -9.6229  -9.5983  -9.5983   4.9098   7.2205   7.2578  12.6089
    12.6089  12.7188  16.5426  16.8804  16.8804  20.4590  20.4766  21.2560
    21.2560  21.8312  22.5051  27.8782  30.9980  30.9980  31.9161  32.0261
    32.2532  33.2906

          k = 0.1000 0.0000 0.0000 (  1205 PWs)   bands (ev):

   -27.2602  -9.6881  -9.5928  -9.5928   5.0400   7.2575   7.4063  12.3378
    12.3378  12.7371  16.0293  17.1926  17.1926  19.5832  20.8237  21.4667
    21.4667  22.2420  23.5575  27.4180  30.0907  30.0907  30.3314  31.5471
    32.5807  33.4392

          k = 0.1500 0.0000 0.0000 (  1209 PWs)   bands (ev):

   -27.2518  -9.7878  -9.5842  -9.5842   5.2394   7.3166   7.6469  11.9779
    11.9779  12.7657  15.4291  17.6078  17.6078  18.7677  21.0629  21.8206
    21.8206  23.0007  24.6656  26.8651  28.6550  29.2387  29.2387  30.7853
    33.4745  33.4769

          k = 0.2000 0.0000 0.0000 (  1201 PWs)   bands (ev):

   -27.2411  -9.9104  -9.5733  -9.5733   5.4878   7.3936   7.9614  11.5944
    11.5944  12.8023  14.8682  18.0280  18.0493  18.0493  21.1807  22.3088
    22.3088  23.9663  25.8106  26.3143  27.0636  28.4870  28.4870  30.0836
    33.5271  34.1236

          k = 0.2500 0.0000 0.0000 (  1213 PWs)   bands (ev):

   -27.2293 -10.0426  -9.5612  -9.5612   5.7652   7.4828   8.3096  11.2290
    11.2290  12.8436  14.4312  17.3741  18.4700  18.4700  21.1748  22.8944
    22.8944  24.9540  25.6615  25.8098  26.9750  27.8818  27.8818  29.5342
    33.5876  34.1689

          k = 0.3000 0.0000 0.0000 (  1201 PWs)   bands (ev):

   -27.2174 -10.1712  -9.5491  -9.5491   6.0543   7.5764   8.6266  10.9073
    10.9073  12.8857  14.1963  16.8161  18.8472  18.8472  20.9407  23.4888
    23.4888  24.4966  25.3752  25.8611  27.5066  27.5066  28.1331  29.3098
    33.6568  34.2111

          k = 0.3500 0.0000 0.0000 (  1201 PWs)   bands (ev):

   -27.2066 -10.2843  -9.5381  -9.5381   6.3373   7.6651   8.8402  10.6446
    10.6446  12.9244  14.2291  16.3649  19.1687  19.1687  20.3420  23.8665
    23.9408  23.9408  25.0245  26.2721  27.4992  27.4992  29.2400  29.6866
    33.7352  34.2339

          k = 0.4000 0.0000 0.0000 (  1197 PWs)   bands (ev):

   -27.1980 -10.3722  -9.5293  -9.5293   6.5899   7.7386   8.9207  10.4511
    10.4511  12.9557  14.5309  16.0317  19.4213  19.4213  19.4699  23.6499
    24.1387  24.1387  24.7674  26.2594  27.9486  27.9486  30.2149  30.6662
    33.2914  33.2915

          k = 0.4500 0.0000 0.0000 (  1202 PWs)   bands (ev):

   -27.1925 -10.4278  -9.5237  -9.5237   6.7741   7.7875   8.9126  10.3327
    10.3327  12.9759  14.9701  15.8268  18.6373  19.5862  19.5862  23.6269
    24.1609  24.1609  24.6104  26.1216  28.7026  28.7026  30.9192  31.9628
    32.0164  32.0164

          k = 0.5000 0.0000 0.0000 (  1222 PWs)   bands (ev):

   -27.1906 -10.4469  -9.5218  -9.5218   6.8435   7.8046   8.8964  10.2928
    10.2928  12.9830  15.2116  15.7575  18.2597  19.6441  19.6441  23.6373
    24.1497  24.1497  24.5577  26.0556  29.2067  29.2067  31.1819  31.3527
    31.3527  33.1718

          k = 0.5000 0.0500 0.0000 (  1202 PWs)   bands (ev):

   -27.1888 -10.4440  -9.5432  -9.5199   6.8984   7.8492   8.7645  10.3038
    10.3842  12.9009  15.2066  15.8607  18.2687  19.4491  19.8000  23.5197
    23.8194  23.9058  25.1988  26.4331  29.0074  29.2162  30.8422  31.0082
    31.4105  33.4442

          k = 0.5000 0.1000 0.0000 (  1190 PWs)   bands (ev):

   -27.1835 -10.4358  -9.6049  -9.5147   7.0459   7.9955   8.4505  10.3359
    10.5866  12.6781  15.1885  16.1542  18.2919  18.9876  20.2439  22.7549
    23.2077  24.5827  25.9906  27.1537  28.4524  29.2435  29.9818  30.4258
    31.5877  33.6975

          k = 0.5000 0.1500 0.0000 (  1194 PWs)   bands (ev):

   -27.1753 -10.4228  -9.6995  -9.5065   7.2394   8.0651   8.2757  10.3869
    10.8153  12.3680  15.1487  16.5926  18.3165  18.4492  20.9223  22.0300
    22.6298  25.4293  26.7417  27.5915  27.7322  29.0619  29.2867  30.1044
    31.8930  33.8477

          k = 0.5000 0.2000 0.0000 (  1200 PWs)   bands (ev):

   -27.1650 -10.4065  -9.8160  -9.4962   7.4316   7.6699   8.7134  10.4530
    11.0397  12.0243  15.0737  17.1090  17.9531  18.3172  21.3647  21.7811
    22.2127  25.6744  27.1170  27.4116  27.7509  28.3676  29.3422  30.4523
    32.3316  33.9965

          k = 0.5000 0.2500 0.0000 (  1200 PWs)   bands (ev):

   -27.1535 -10.3882  -9.9418  -9.4848   7.2990   7.6057   9.2913  10.5291
    11.2522  11.6875  14.9507  17.5684  17.6236  18.2598  20.7724  22.0501
    22.7788  24.4961  27.3720  27.5669  27.9733  28.2843  29.4049  31.2840
    32.8876  34.1158

          k = 0.5000 0.3000 0.0000 (  1196 PWs)   bands (ev):

   -27.1419 -10.3698 -10.0644  -9.4732   6.9737   7.7625   9.9606  10.6083
    11.3854  11.4492  14.7816  17.3337  18.0470  18.1414  20.2654  22.1951
    23.0844  23.8860  26.9356  27.2259  28.4175  29.3935  29.4685  32.2050
    33.5069  33.8374

          k = 0.5000 0.3500 0.0000 (  1200 PWs)   bands (ev):

   -27.1314 -10.3531 -10.1725  -9.4628   6.7082   7.9002  10.6543  10.6826
    11.1358  11.6235  14.5952  17.2629  17.9214  18.4072  19.8551  21.7024
    22.6008  25.0808  26.5825  26.8827  28.7500  29.5244  30.6801  32.7424
    32.9820  33.6575

          k = 0.5000 0.4000 0.0000 (  1202 PWs)   bands (ev):

   -27.1231 -10.3398 -10.2567  -9.4545   6.5123   8.0109  10.7438  10.9505
    11.2813  11.7638  14.4377  17.3638  17.7279  18.6332  19.5524  20.4350
    23.1130  26.3436  26.3869  26.6270  28.9809  29.5594  31.5295  31.9916
    32.2214  33.4891

          k = 0.5000 0.4500 0.0000 (  1200 PWs)   bands (ev):

   -27.1177 -10.3312 -10.3100  -9.4492   6.3923   8.0837  10.7842  10.8366
    11.7270  11.8562  14.3450  17.5874  17.6467  18.7653  19.3665  19.3727
    23.5250  26.3738  26.4703  27.6410  29.1175  29.5232  30.5831  30.8585
    33.2005  33.7515

          k = 0.5000 0.5000 0.0000 (  1180 PWs)   bands (ev):

   -27.1158 -10.3282 -10.3282  -9.4473   6.3519   8.1093  10.7983  10.7983
    11.8885  11.8885  14.3181  17.5364  17.9324  18.8089  18.8089  19.3038
    23.6774  26.4177  26.4177  28.6686  29.1628  29.1628  30.1566  30.2044
    33.8317  33.8318

          k = 0.4750 0.4750 0.0000 (  1200 PWs)   bands (ev):

   -27.1168 -10.3247 -10.3241  -9.4483   6.3720   8.0964  10.8015  10.8072
    11.8362  11.8431  14.3306  17.5487  17.7561  18.8790  19.0473  19.3352
    23.6058  26.2609  26.5713  28.0682  28.8771  29.7551  30.3969  30.4443
    33.6291  33.6325

          k = 0.4500 0.4500 0.0000 (  1204 PWs)   bands (ev):

   -27.1196 -10.3140 -10.3119  -9.4510   6.4316   8.0584  10.8115  10.8337
    11.6860  11.7113  14.3677  17.3270  17.7338  19.0825  19.4286  19.5038
    23.4456  25.8653  26.9835  27.2791  28.3568  30.5121  30.8990  30.9694
    33.1231  33.1459

          k = 0.4250 0.4250 0.0000 (  1200 PWs)   bands (ev):

   -27.1241 -10.2963 -10.2917  -9.4556   6.5273   7.9975  10.8293  10.8776
    11.4550  11.5061  14.4284  16.9916  17.8913  19.4018  19.5817  20.0008
    23.2986  25.3539  26.4893  27.5697  27.7951  31.2163  31.5335  31.5812
    32.4450  32.5405

          k = 0.4000 0.4000 0.0000 (  1198 PWs)   bands (ev):

   -27.1303 -10.2718 -10.2640  -9.4618   6.6522   7.9185  10.8560  10.9385
    11.1644  11.2456  14.5114  16.6964  18.0824  19.7899  19.8132  20.4820
    23.2518  24.8083  25.7149  27.2271  28.2703  31.6887  31.7863  31.8459
    32.0908  32.3921

          k = 0.3750 0.3750 0.0000 (  1194 PWs)   bands (ev):

   -27.1380 -10.2407 -10.2294  -9.4695   6.7922   7.8319  10.8340  10.8934
    10.9510  11.0157  14.6156  16.4581  18.2663  20.0457  20.2899  20.9196
    23.3659  24.2758  24.9666  26.6631  29.0465  30.9076  31.1664  32.1212
    32.6116  33.1931

          k = 0.3500 0.3500 0.0000 (  1198 PWs)   bands (ev):

   -27.1471 -10.2035 -10.1884  -9.4785   6.9167   7.7613  10.4805  10.6462
    10.9432  11.1084  14.7400  16.2790  18.4101  20.3351  20.7980  21.3195
    23.6587  23.7935  24.2591  26.1074  29.7732  30.2342  30.4668  32.1921
    33.0569  33.9463

          k = 0.3250 0.3250 0.0000 (  1201 PWs)   bands (ev):

   -27.1572 -10.1605 -10.1420  -9.4886   6.9697   7.7508  10.1169  10.3590
    11.0072  11.2155  14.8836  16.1561  18.4962  20.6281  21.2766  21.7195
    23.4191  23.6220  24.0951  25.5634  29.2781  29.7692  30.8464  32.0850
    33.2114  33.3725

          k = 0.3000 0.3000 0.0000 (  1197 PWs)   bands (ev):

   -27.1682 -10.1124 -10.0911  -9.4997   6.9090   7.8213   9.7532  10.1245
    11.0870  11.3357  15.0446  16.0832  18.5297  20.8520  21.5885  22.1527
    23.1274  23.2824  24.6127  25.0336  28.5613  29.0870  31.7503  31.8928
    32.3225  33.5088

          k = 0.2750 0.2750 0.0000 (  1193 PWs)   bands (ev):

   -27.1798 -10.0602 -10.0369  -9.5113   6.7584   7.9157   9.3972   9.9873
    11.1836  11.4672  15.2208  16.0521  18.5325  20.8592  21.5872  22.6188
    22.9217  23.5170  24.5207  25.1405  27.9248  28.4380  31.4002  31.6693
    32.6580  33.4649

          k = 0.2500 0.2500 0.0000 (  1193 PWs)   bands (ev):

   -27.1916 -10.0047  -9.9805  -9.5232   6.5568   7.9597   9.0551   9.9915
    11.2977  11.6079  15.4096  16.0536  18.5323  20.5662  21.3806  23.0765
    23.0872  23.9866  24.0278  25.5775  27.4768  27.8550  30.4835  31.4421
    33.2945  33.4835

          k = 0.2250 0.2250 0.0000 (  1201 PWs)   bands (ev):

   -27.2035  -9.9474  -9.9234  -9.5352   6.3278   7.9243   8.7319  10.1486
    11.4294  11.7553  15.6068  16.0783  18.5545  20.0962  21.1263  23.4215
    23.4990  23.5583  24.4630  25.8149  27.3478  27.4137  29.6531  31.2264
    33.0602  33.8481

          k = 0.2000 0.2000 0.0000 (  1207 PWs)   bands (ev):

   -27.2151  -9.8894  -9.8668  -9.5469   6.0863   7.8299   8.4317  10.4263
    11.5779  11.9063  15.8077  16.1184  18.6193  19.5693  20.8906  23.1162
    23.4835  24.0354  24.7230  26.0127  27.2769  27.3086  29.1498  31.0322
    32.8059  33.5953

          k = 0.1750 0.1750 0.0000 (  1203 PWs)   bands (ev):

   -27.2261  -9.8325  -9.8123  -9.5581   5.8443   7.7100   8.1584  10.7786
    11.7414  12.0573  16.0058  16.1689  18.7410  19.0391  20.7011  22.7059
    23.2083  24.6110  24.6398  26.3419  26.9384  27.5799  29.2797  30.8677
    32.5572  33.3655

          k = 0.1500 0.1500 0.0000 (  1215 PWs)   bands (ev):

   -27.2362  -9.7783  -9.7614  -9.5684   5.6125   7.5881   7.9149  11.1668
    11.9165  12.2040  16.1937  16.2292  18.5301  18.9277  20.5726  22.3325
    22.7337  24.2379  25.2832  25.9402  27.2104  28.2045  29.7965  30.7412
    32.3284  33.1631

          k = 0.1250 0.1250 0.0000 (  1215 PWs)   bands (ev):

   -27.2453  -9.7285  -9.7154  -9.5776   5.4004   7.4765   7.7040  11.5601
    12.0981  12.3417  16.3028  16.3633  18.0577  19.1821  20.5154  22.0017
    22.1861  23.7638  25.1371  25.9424  27.9340  28.9886  30.4383  30.6648
    32.1277  32.9903

          k = 0.1000 0.1000 0.0000 (  1219 PWs)   bands (ev):

   -27.2530  -9.6849  -9.6757  -9.5854   5.2161   7.3816   7.5282  11.9310
    12.2783  12.4649  16.3945  16.5071  17.6350  19.5034  20.5359  21.6334
    21.7193  23.2657  24.3208  26.5890  28.7448  29.8553  30.6573  31.1173
    31.9596  32.8482

          k = 0.0750 0.0750 0.0000 (  1217 PWs)   bands (ev):

   -27.2592  -9.6490  -9.6435  -9.5918   5.0660   7.3062   7.3893  12.2529
    12.4457  12.5684  16.5052  16.6199  17.2766  19.8879  20.6360  21.1208
    21.4914  22.7780  23.5369  27.1812  29.5925  30.7486  30.7723  31.7970
    31.8269  32.7375

          k = 0.0500 0.0500 0.0000 (  1211 PWs)   bands (ev):

   -27.2637  -9.6223  -9.6197  -9.5964   4.9552   7.2518   7.2889  12.5019
    12.5852  12.6469  16.6239  16.6994  16.9996  20.3281  20.6948  20.8098
    21.3238  22.3223  22.8037  27.6605  30.4407  30.9777  31.7217  31.7313
    32.4514  32.6586

          k = 0.0250 0.0250 0.0000 (  1213 PWs)   bands (ev):

   -27.2665  -9.6058  -9.6051  -9.5993   4.8874   7.2189   7.2282  12.6590
    12.6792  12.6959  16.7221  16.7461  16.8226  20.3919  20.8245  21.0342
    21.2210  21.9278  22.1412  27.9677  31.2213  31.3540  31.6736  32.6007
    32.6928  32.8357

          k = 0.0000 0.0000 0.0000 (  1213 PWs)   bands (ev):

   -27.2674  -9.6002  -9.6002  -9.6002   4.8645   7.2079   7.2079  12.7126
    12.7126  12.7126  16.7614  16.7614  16.7614  20.2879  21.1864  21.1864
    21.1864  21.7188  21.7188  28.0719  31.6543  31.6543  31.6543  32.5930
    32.5930  32.5930

          k = 0.0250 0.0250 0.0250 (  1210 PWs)   bands (ev):

   -27.2660  -9.6056  -9.6046  -9.6046   4.8988   7.2314   7.2314  12.6441
    12.6690  12.6690  16.7402  16.7770  16.7770  20.4453  20.8456  20.8456
    21.2066  22.1626  22.1626  27.9127  31.0626  31.4429  31.4429  32.6754
    32.6755  32.8658

          k = 0.0500 0.0500 0.0500 (  1213 PWs)   bands (ev):

   -27.2619  -9.6216  -9.6178  -9.6178   5.0007   7.3014   7.3014  12.4498
    12.5401  12.5401  16.6974  16.8229  16.8229  20.4387  20.4387  20.8844
    21.2672  22.8752  22.8752  27.4148  30.3052  31.0675  31.0675  31.7369
    31.7369  33.3800

          k = 0.0750 0.0750 0.0750 (  1213 PWs)   bands (ev):

   -27.2551  -9.6473  -9.6392  -9.6392   5.1673   7.4171   7.4171  12.1599
    12.3317  12.3317  16.6690  16.8973  16.8973  20.1404  20.1404  21.3681
    21.5362  23.6686  23.6686  26.5986  29.7635  30.6523  30.6523  30.8619
    30.8619  33.2241

          k = 0.1000 0.1000 0.1000 (  1213 PWs)   bands (ev):

   -27.2458  -9.6815  -9.6680  -9.6680   5.3932   7.5767   7.5767  11.8136
    12.0545  12.0545  16.6749  16.9976  16.9976  19.9658  19.9658  21.5092
    22.3344  24.4970  24.4970  25.5903  29.4120  29.9086  29.9086  30.4168
    30.4168  32.7213

          k = 0.1250 0.1250 0.1250 (  1216 PWs)   bands (ev):

   -27.2342  -9.7224  -9.7033  -9.7033   5.6704   7.7776   7.7776  11.4503
    11.7232  11.7232  16.7161  17.1211  17.1211  19.9129  19.9129  21.6902
    23.2109  24.5337  25.2898  25.2898  29.1742  29.1742  29.1817  30.1362
    30.1362  32.1386

          k = 0.1500 0.1500 0.1500 (  1210 PWs)   bands (ev):

   -27.2207  -9.7683  -9.7440  -9.7440   5.9868   8.0157   8.0157  11.1061
    11.3562  11.3562  16.7822  17.2657  17.2657  19.9715  19.9716  21.9109
    23.3382  24.2892  25.8676  25.8676  28.7218  28.7218  29.0423  29.9250
    29.9250  31.5202

          k = 0.1750 0.1750 0.1750 (  1210 PWs)   bands (ev):

   -27.2056  -9.8173  -9.7887  -9.7887   6.3243   8.2843   8.2843  10.8153
    10.9747  10.9747  16.8534  17.4290  17.4290  20.1262  20.1262  22.1708
    22.3630  25.2050  25.9191  25.9191  28.8311  28.8311  28.9928  29.8121
    29.8121  30.9093

          k = 0.2000 0.2000 0.2000 (  1211 PWs)   bands (ev):

   -27.1892  -9.8678  -9.8360  -9.8360   6.6567   8.5692   8.5692  10.6052
    10.6052  10.6140  16.8978  17.6082  17.6082  20.3570  20.3570  21.4507
    22.4695  25.4954  25.4954  26.0733  29.0173  29.2344  29.2344  30.0127
    30.0127  30.4057

          k = 0.2250 0.2250 0.2250 (  1205 PWs)   bands (ev):

   -27.1721  -9.9179  -9.8847  -9.8847   6.9490   8.8347   8.8347  10.2942
    10.2942  10.5422  16.8630  17.7982  17.7982  20.6379  20.6379  20.6945
    22.8062  24.9159  24.9159  26.7296  28.9110  29.3336  29.3336  30.3419
    30.8020  30.8020

          k = 0.2500 0.2500 0.2500 (  1196 PWs)   bands (ev):

   -27.1545  -9.9665  -9.9335  -9.9335   7.1661   8.9822   8.9822  10.1480
    10.1480  10.6363  16.6796  17.9899  17.9899  20.1709  20.9290  20.9290
    23.1800  24.3576  24.3576  27.0681  28.5222  29.3356  29.3356  30.9649
    31.7728  31.7728

          k = 0.2750 0.2750 0.2750 (  1196 PWs)   bands (ev):

   -27.1369 -10.0124  -9.9811  -9.9811   7.2924   8.8989   8.8989  10.2855
    10.2855  10.9101  16.3073  18.1669  18.1669  19.9235  21.1628  21.1628
    23.5895  23.9390  23.9390  27.0268  28.1861  29.3368  29.3368  31.9604
    32.5322  32.5322

          k = 0.3000 0.3000 0.3000 (  1196 PWs)   bands (ev):

   -27.1198 -10.0548 -10.0265 -10.0265   7.3429   8.6669   8.6669  10.6284
    10.6284  11.3439  15.7849  18.3001  18.3001  19.9150  21.2506  21.2506
    23.7829  23.7829  24.0328  26.5932  28.1136  29.3277  29.3277  32.0800
    32.5352  32.5352

          k = 0.3250 0.3250 0.3250 (  1205 PWs)   bands (ev):

   -27.1037 -10.0928 -10.0687 -10.0687   7.3487   8.3997   8.3997  11.0659
    11.0659  11.8984  15.1932  18.3421  18.3421  20.0655  21.1839  21.1839
    23.9379  23.9379  24.5069  25.9638  28.1840  29.2620  29.2620  31.1279
    32.1835  32.1835

          k = 0.3500 0.3500 0.3500 (  1196 PWs)   bands (ev):

   -27.0887 -10.1263 -10.1069 -10.1069   7.3378   8.1427   8.1427  11.5538
    11.5538  12.5332  14.5979  18.2359  18.2359  20.3093  21.0917  21.0917
    24.3181  24.3181  25.0078  25.2661  28.2819  29.0782  29.0782  30.2370
    31.9572  31.9572

          k = 0.3750 0.3750 0.3750 (  1202 PWs)   bands (ev):

   -27.0755 -10.1548 -10.1403 -10.1403   7.3279   7.9131   7.9131  12.0747
    12.0747  13.2112  14.0421  17.9539  17.9539  20.6028  21.0893  21.0893
    24.5444  24.8146  24.8146  25.5283  28.2902  28.7590  28.7590  29.5576
    31.9750  31.9750

          k = 0.4000 0.4000 0.4000 (  1196 PWs)   bands (ev):

   -27.0641 -10.1781 -10.1683 -10.1683   7.3264   7.7189   7.7189  12.6189
    12.6189  13.5386  13.9124  17.5266  17.5266  20.9144  21.1894  21.1894
    23.8271  25.3531  25.3531  26.0570  27.9986  28.3645  28.3645  29.3098
    32.2054  32.2054

          k = 0.4250 0.4250 0.4250 (  1178 PWs)   bands (ev):

   -27.0550 -10.1963 -10.1905 -10.1905   7.3340   7.5645   7.5645  13.1373
    13.1769  13.1769  14.5654  17.0119  17.0119  21.2146  21.3468  21.3468
    23.1506  25.8749  25.8749  26.5727  27.5061  27.9804  27.9804  29.3977
    32.4677  32.4677

          k = 0.4500 0.4500 0.4500 (  1184 PWs)   bands (ev):

   -27.0484 -10.2093 -10.2067 -10.2067   7.3466   7.4527   7.4527  12.8332
    13.7334  13.7334  15.1349  16.4646  16.4646  21.4681  21.5081  21.5081
    22.5723  26.3108  26.3108  27.0368  27.0587  27.6849  27.6849  29.5713
    32.1894  32.1894

          k = 0.4750 0.4750 0.4750 (  1208 PWs)   bands (ev):

   -27.0443 -10.2172 -10.2165 -10.2165   7.3578   7.3850   7.3850  12.6442
    14.2431  14.2431  15.5371  15.9528  15.9528  21.6273  21.6273  21.6291
    22.1796  26.5763  26.5763  26.7576  27.3810  27.5384  27.5384  29.7184
    31.8238  31.8239

          k = 0.5000 0.5000 0.5000 (  1208 PWs)   bands (ev):

   -27.0430 -10.2198 -10.2198 -10.2198   7.3623   7.3623   7.3623  12.5800
    14.5092  14.5092  15.6850  15.6850  15.6850  21.6713  21.6713  21.6713
    22.0513  26.6514  26.6514  26.6514  27.5127  27.5127  27.5127  29.7758
    31.6827  31.6827

     Writing all to output data dir ./work/POSCAR.save/

     init_run     :      0.22s CPU      0.26s WALL (       1 calls)
     electrons    :      4.02s CPU      4.40s WALL (       1 calls)

     Called by init_run:
     wfcinit      :      0.00s CPU      0.01s WALL (       1 calls)
     potinit      :      0.08s CPU      0.10s WALL (       1 calls)
     hinit0       :      0.13s CPU      0.13s WALL (       1 calls)

     Called by electrons:
     c_bands      :      4.01s CPU      4.39s WALL (       1 calls)
     v_of_rho     :      0.00s CPU      0.00s WALL (       1 calls)
     newd         :      0.00s CPU      0.00s WALL (       1 calls)
     PAW_pot      :      0.02s CPU      0.04s WALL (       1 calls)

     Called by c_bands:
     init_us_2    :      0.00s CPU      0.00s WALL (      91 calls)
     init_us_2:cp :      0.00s CPU      0.00s WALL (      91 calls)
     cegterg      :      3.73s CPU      3.86s WALL (     125 calls)

     Called by *egterg:
     cdiaghg      :      1.10s CPU      1.14s WALL (    1855 calls)
     h_psi        :      2.27s CPU      2.34s WALL (    1980 calls)
     s_psi        :      0.02s CPU      0.02s WALL (    1980 calls)
     g_psi        :      0.02s CPU      0.02s WALL (    1764 calls)

     Called by h_psi:
     h_psi:calbec :      0.08s CPU      0.08s WALL (    1980 calls)
     vloc_psi     :      2.15s CPU      2.22s WALL (    1980 calls)
     add_vuspsi   :      0.03s CPU      0.03s WALL (    1980 calls)

     General routines
     calbec       :      0.08s CPU      0.08s WALL (    1980 calls)
     fft          :      0.11s CPU      0.11s WALL (      13 calls)
     ffts         :      0.05s CPU      0.05s WALL (       1 calls)
     fftw         :      2.01s CPU      2.08s WALL (   53282 calls)
     interpolate  :      0.05s CPU      0.05s WALL (       1 calls)
     davcio       :      0.01s CPU      0.20s WALL (     182 calls)

     Parallel routines

     PWSCF        :      4.57s CPU      5.87s WALL


   This run was terminated on:  22:42:41  15May2024            

=------------------------------------------------------------------------------=
   JOB DONE.
=------------------------------------------------------------------------------=
