
     Program PWSCF v.7.1 starts on 15May2024 at 22:40: 2 

     This program is part of the open-source Quantum ESPRESSO suite
     for quantum simulation of materials; please cite
         "P. Giannozzi et al., J. Phys.:Condens. Matter 21 395502 (2009);
         "P. Giannozzi et al., J. Phys.:Condens. Matter 29 465901 (2017);
         "P. Giannozzi et al., J. Chem. Phys. 152 154105 (2020);
          URL http://www.quantum-espresso.org", 
     in publications or presentations arising from this work. More details at
     http://www.quantum-espresso.org/quote

     Parallel version (MPI & OpenMP), running on      10 processor cores
     Number of MPI processes:                10
     Threads/MPI process:                     1

     MPI processes distributed on     1 nodes
     14555 MiB available memory on the printing compute node when the environment starts

     Waiting for input...
     Reading input from standard input

     Current dimensions of program PWSCF are:
     Max number of different atomic species (ntypx) = 10
     Max number of k-points (npk) =  40000
     Max angular momentum in pseudopotentials (lmaxx) =  4
     file Ce.pbe-spdn-kjpaw_psl.1.0.0.UPF: wavefunction(s)  5D renormalized
     Message from routine setup:
     using ibrav=0 with symmetry is DISCOURAGED, use correct ibrav instead

     R & G space division:  proc/nbgrp/npool/nimage =      10
     Subspace diagonalization in iterative solution of the eigenvalue problem:
     a serial algorithm will be used


     Parallelization info
     --------------------
     sticks:   dense  smooth     PW     G-vecs:    dense   smooth      PW
     Min          54      46     14                  982      744     134
     Max          56      48     15                  986      745     137
     Sum         553     465    145                 9843     7441    1357

     Using Slab Decomposition



     bravais-lattice index     =            0
     lattice parameter (alat)  =       6.2606  a.u.
     unit-cell volume          =     245.3856 (a.u.)^3
     number of atoms/cell      =            1
     number of atomic types    =            1
     number of electrons       =        11.00
     number of Kohn-Sham states=           26
     kinetic-energy cutoff     =      37.0000  Ry
     charge density cutoff     =     179.0000  Ry
     scf convergence threshold =      7.3E-05
     mixing beta               =       0.7000
     number of iterations used =            8  plain     mixing
     Exchange-correlation= SLA  PW   PBX  PBC
                           (   1   4   3   4   0   0   0)

     celldm(1)=   6.260606  celldm(2)=   0.000000  celldm(3)=   0.000000
     celldm(4)=   0.000000  celldm(5)=   0.000000  celldm(6)=   0.000000

     crystal axes: (cart. coord. in units of alat)
               a(1) = (   1.000000   0.000000   0.000000 )  
               a(2) = (   0.000000   1.000000   0.000000 )  
               a(3) = (   0.000000   0.000000   1.000000 )  

     reciprocal axes: (cart. coord. in units 2 pi/alat)
               b(1) = (  1.000000  0.000000  0.000000 )  
               b(2) = (  0.000000  1.000000  0.000000 )  
               b(3) = (  0.000000  0.000000  1.000000 )  


     PseudoPot. # 1 for Ce read from file:
     ./../../../../pseudo/psl100_PBE/Ce.pbe-spdn-kjpaw_psl.1.0.0.UPF
     MD5 check sum: 1a25380276e46fcecd5a173acdad072c
     Pseudo is Projector augmented-wave + core cor, Zval = 11.0
     Generated using 'atomic' code by A. Dal Corso  v.7.2
     Shape of augmentation charge: PSQ
     Using radial grid of 1255 points,  6 beta functions with: 
                l(1) =   0
                l(2) =   0
                l(3) =   1
                l(4) =   1
                l(5) =   2
                l(6) =   2
     Q(r) pseudized with 0 coefficients 


     atomic species   valence    mass     pseudopotential
        Ce            11.00   140.11600     Ce( 1.00)

     48 Sym. Ops., with inversion, found



   Cartesian axes

     site n.     atom                  positions (alat units)
         1           Ce  tau(   1) = (   0.0000000   0.0000000   0.0000000  )

     number of k points=    35  Methfessel-Paxton smearing, width (Ry)=  0.0200
                       cart. coord. in units 2pi/alat
        k(    1) = (   0.0000000   0.0000000   0.0000000), wk =   0.0027435
        k(    2) = (   0.0000000   0.0000000   0.1111111), wk =   0.0164609
        k(    3) = (   0.0000000   0.0000000   0.2222222), wk =   0.0164609
        k(    4) = (   0.0000000   0.0000000   0.3333333), wk =   0.0164609
        k(    5) = (   0.0000000   0.0000000   0.4444444), wk =   0.0164609
        k(    6) = (   0.0000000   0.1111111   0.1111111), wk =   0.0329218
        k(    7) = (   0.0000000   0.1111111   0.2222222), wk =   0.0658436
        k(    8) = (   0.0000000   0.1111111   0.3333333), wk =   0.0658436
        k(    9) = (   0.0000000   0.1111111   0.4444444), wk =   0.0658436
        k(   10) = (   0.0000000   0.2222222   0.2222222), wk =   0.0329218
        k(   11) = (   0.0000000   0.2222222   0.3333333), wk =   0.0658436
        k(   12) = (   0.0000000   0.2222222   0.4444444), wk =   0.0658436
        k(   13) = (   0.0000000   0.3333333   0.3333333), wk =   0.0329218
        k(   14) = (   0.0000000   0.3333333   0.4444444), wk =   0.0658436
        k(   15) = (   0.0000000   0.4444444   0.4444444), wk =   0.0329218
        k(   16) = (   0.1111111   0.1111111   0.1111111), wk =   0.0219479
        k(   17) = (   0.1111111   0.1111111   0.2222222), wk =   0.0658436
        k(   18) = (   0.1111111   0.1111111   0.3333333), wk =   0.0658436
        k(   19) = (   0.1111111   0.1111111   0.4444444), wk =   0.0658436
        k(   20) = (   0.1111111   0.2222222   0.2222222), wk =   0.0658436
        k(   21) = (   0.1111111   0.2222222   0.3333333), wk =   0.1316872
        k(   22) = (   0.1111111   0.2222222   0.4444444), wk =   0.1316872
        k(   23) = (   0.1111111   0.3333333   0.3333333), wk =   0.0658436
        k(   24) = (   0.1111111   0.3333333   0.4444444), wk =   0.1316872
        k(   25) = (   0.1111111   0.4444444   0.4444444), wk =   0.0658436
        k(   26) = (   0.2222222   0.2222222   0.2222222), wk =   0.0219479
        k(   27) = (   0.2222222   0.2222222   0.3333333), wk =   0.0658436
        k(   28) = (   0.2222222   0.2222222   0.4444444), wk =   0.0658436
        k(   29) = (   0.2222222   0.3333333   0.3333333), wk =   0.0658436
        k(   30) = (   0.2222222   0.3333333   0.4444444), wk =   0.1316872
        k(   31) = (   0.2222222   0.4444444   0.4444444), wk =   0.0658436
        k(   32) = (   0.3333333   0.3333333   0.3333333), wk =   0.0219479
        k(   33) = (   0.3333333   0.3333333   0.4444444), wk =   0.0658436
        k(   34) = (   0.3333333   0.4444444   0.4444444), wk =   0.0658436
        k(   35) = (   0.4444444   0.4444444   0.4444444), wk =   0.0219479

     Dense  grid:     9843 G-vectors     FFT dimensions: (  27,  27,  27)

     Smooth grid:     7441 G-vectors     FFT dimensions: (  25,  25,  25)

     Estimated max dynamical RAM per process >       5.79 MB

     Estimated total dynamical RAM >      57.90 MB

     Initial potential from superposition of free atoms

     starting charge      10.9735, renormalised to      11.0000
     Starting wfcs are   13 randomized atomic wfcs +   13 random wfcs
     Checking if some PAW data can be deallocated... 

     total cpu time spent up to now is        0.5 secs

     per-process dynamical memory:    13.5 Mb

     Self-consistent Calculation

     iteration #  1     ecut=    37.00 Ry     beta= 0.70
     Davidson diagonalization with overlap
     ethr =  1.00E-02,  avg # of iterations =  7.1

     Threshold (ethr) on eigenvalues was too large:
     Diagonalizing with lowered threshold

     Davidson diagonalization with overlap
     ethr =  5.14E-05,  avg # of iterations =  3.7

     total cpu time spent up to now is        1.3 secs

     total energy              =    -471.69891850 Ry
     estimated scf accuracy    <       0.00584128 Ry

     iteration #  2     ecut=    37.00 Ry     beta= 0.70
     Davidson diagonalization with overlap
     ethr =  5.31E-05,  avg # of iterations =  1.7

     total cpu time spent up to now is        1.6 secs

     total energy              =    -471.70021929 Ry
     estimated scf accuracy    <       0.00034489 Ry

     iteration #  3     ecut=    37.00 Ry     beta= 0.70
     Davidson diagonalization with overlap
     ethr =  3.14E-06,  avg # of iterations =  3.4

     total cpu time spent up to now is        1.8 secs

     End of self-consistent calculation

          k = 0.0000 0.0000 0.0000 (   925 PWs)   bands (ev):

   -24.1558  -6.0851  -6.0851  -6.0851   7.6747   9.6878   9.6878  17.0818
    17.0818  17.0818  21.2096  21.2096  21.2096  25.4264  25.4264  25.4264
    25.7436  26.7634  26.7634  33.5721  38.4435  38.4436  38.4436  39.2693
    39.2693  39.2693

          k = 0.0000 0.0000 0.1111 (   924 PWs)   bands (ev):

   -24.1335  -6.3120  -6.0658  -6.0658   7.9530   9.7681  10.0791  16.3874
    16.3874  17.1266  20.2002  21.9041  21.9041  23.5274  25.9294  25.9294
    26.3160  27.6998  29.0306  32.7101  36.3049  36.3049  37.3508  38.3888
    39.7044  41.3168

          k = 0.0000 0.0000 0.2222 (   932 PWs)   bands (ev):

   -24.0763  -6.8449  -6.0163  -6.0163   8.5636   9.9851  11.1791  15.1925
    15.1925  17.2437  18.7424  21.5200  22.9822  22.9822  26.6170  27.4726
    27.4726  30.2603  31.2799  32.1490  33.2393  34.2639  34.2639  36.1945
    42.1159  42.1159

          k = 0.0000 0.0000 0.3333 (   920 PWs)   bands (ev):

   -24.0098  -7.3942  -5.9591  -5.9591   9.2560  10.2612  12.2723  14.2233
    14.2233  17.3843  18.3635  20.0256  23.7946  23.7946  26.1264  29.4281
    29.4281  29.9620  30.1289  32.1757  33.2657  33.2657  35.5039  35.9620
    42.0452  42.0456

          k = 0.0000 0.0000 0.4444 (   912 PWs)   bands (ev):

   -23.9656  -7.7271  -5.9213  -5.9213   9.8307  10.4633  12.4519  13.7016
    13.7016  17.4807  19.2098  19.8676  23.6084  24.2823  24.2823  29.3845
    29.5044  30.0124  30.0124  31.7618  34.7199  34.7199  38.8116  38.9819
    39.1724  39.1724

          k = 0.0000 0.1111 0.1111 (   933 PWs)   bands (ev):

   -24.1113  -6.3035  -6.2783  -6.0466   8.2359  10.0108  10.2933  15.6476
    16.2907  16.6169  20.8071  20.9222  22.6526  23.6205  24.8333  26.3363
    27.5613  28.7505  30.1844  31.6248  34.4693  37.0261  37.0454  38.6201
    38.8936  39.9196

          k = 0.0000 0.1111 0.2222 (   936 PWs)   bands (ev):

   -24.0543  -6.8209  -6.2365  -5.9975   8.8376  10.2882  11.2849  14.4913
    15.2427  16.6359  19.3273  21.7969  22.1410  23.8623  26.2507  27.6773
    28.2091  30.0616  30.8231  32.6020  32.9354  33.4507  35.7900  38.2088
    38.3755  41.0032

          k = 0.0000 0.1111 0.3333 (   924 PWs)   bands (ev):

   -23.9881  -7.3667  -6.1745  -5.9407   9.5071  10.5777  11.9762  14.1091
    14.2914  16.7959  18.6831  20.7358  22.5434  24.7341  27.0663  28.2741
    28.2864  30.3333  30.4165  31.7596  33.9352  34.5862  35.6130  37.4965
    38.7811  41.8640

          k = 0.0000 0.1111 0.4444 (   917 PWs)   bands (ev):

   -23.9440  -7.6979  -6.1333  -5.9030  10.0925  10.8380  11.5739  13.7749
    14.3008  16.9106  19.7398  20.0690  22.9451  24.2006  25.2692  27.5679
    28.3779  30.6315  31.9870  33.1690  34.4107  34.9879  37.2176  37.8159
    39.3452  39.9193

          k = 0.0000 0.2222 0.2222 (   923 PWs)   bands (ev):

   -23.9978  -6.7837  -6.7307  -5.9492   9.3475  10.7824  11.9323  13.5687
    15.2244  15.6874  19.7857  20.4846  23.0965  25.4145  25.6348  28.4828
    28.5686  29.2985  30.7725  31.6788  33.5996  34.3796  36.1801  37.6488
    40.1638  40.9447

          k = 0.0000 0.2222 0.3333 (   931 PWs)   bands (ev):

   -23.9322  -7.2961  -6.6831  -5.8935   9.8127  10.7279  12.4156  14.1295
    14.4700  15.7010  19.0550  20.9578  22.4793  25.9270  26.7413  27.7177
    28.0625  29.0710  30.7321  32.5998  33.5983  35.8720  37.0282  38.4205
    39.1103  41.2596

          k = 0.0000 0.2222 0.4444 (   928 PWs)   bands (ev):

   -23.8886  -7.6224  -6.6351  -5.8565  10.0765  10.5673  12.4016  13.9717
    14.9674  15.8303  19.6260  21.4807  22.1166  24.1709  25.6268  26.8734
    27.7152  31.5815  33.1595  33.5193  33.8422  35.4786  36.0360  37.5970
    39.9234  40.2355

          k = 0.0000 0.3333 0.3333 (   940 PWs)   bands (ev):

   -23.8673  -7.2310  -7.1937  -5.8390   9.5284  10.6555  14.1319  14.4201
    14.6002  14.8711  18.9847  20.5349  23.3158  24.9418  26.7401  27.3354
    28.4830  29.7749  29.9526  31.4630  36.4196  36.4965  37.4454  38.9280
    40.8654  40.9977

          k = 0.0000 0.3333 0.4444 (   930 PWs)   bands (ev):

   -23.8242  -7.5341  -7.1567  -5.8028   9.1180  10.8784  14.2190  14.4355
    14.9103  15.5084  19.1299  21.5406  22.9099  24.0339  24.2515  27.1692
    28.7308  30.7695  30.9699  34.1691  34.2759  36.9672  37.4057  39.5386
    39.9734  40.8096

          k = 0.0000 0.4444 0.4444 (   932 PWs)   bands (ev):

   -23.7814  -7.4776  -7.4721  -5.7673   8.5718  11.1437  14.3831  14.4212
    15.8556  15.8713  19.1524  22.1432  22.5303  23.4929  23.9003  25.6694
    28.7657  30.9456  32.8153  34.0219  34.6710  37.1521  38.0836  38.1818
    40.3180  40.5060

          k = 0.1111 0.1111 0.1111 (   943 PWs)   bands (ev):

   -24.0892  -6.2945  -6.2578  -6.2578   8.5301  10.3699  10.3699  15.4988
    15.8447  15.8447  21.4732  21.6833  21.6833  24.3028  24.3028  25.8978
    28.6150  30.3272  30.4485  30.4485  35.3135  36.6541  36.6541  37.2438
    37.2438  40.3579

          k = 0.1111 0.1111 0.2222 (   927 PWs)   bands (ev):

   -24.0323  -6.7971  -6.2268  -6.2053   9.1338  10.5799  11.3733  14.5498
    14.5757  15.9337  20.0951  22.3615  22.4326  23.3572  26.0728  27.0410
    28.5541  29.5814  31.8099  33.0447  33.6540  34.1594  34.7754  37.4972
    38.9574  39.9970

          k = 0.1111 0.1111 0.3333 (   925 PWs)   bands (ev):

   -23.9663  -7.3395  -6.1646  -6.1445   9.7913  10.8590  11.8708  13.4900
    14.6800  16.1319  19.2583  21.2241  22.9507  24.2036  26.4828  27.6946
    29.1271  29.4574  31.2018  32.8950  33.1298  35.3145  35.7642  38.5089
    38.6353  40.0016

          k = 0.1111 0.1111 0.4444 (   930 PWs)   bands (ev):

   -23.9225  -7.6689  -6.1232  -6.1042  10.4594  11.0844  11.3383  12.8886
    15.3496  16.2775  20.0412  20.4931  23.1206  24.7107  24.7295  25.7560
    30.2640  30.7043  31.8171  33.5671  34.0211  35.8628  36.5821  38.0190
    38.0918  39.7871

          k = 0.1111 0.2222 0.2222 (   929 PWs)   bands (ev):

   -23.9760  -6.7601  -6.7078  -6.1634   9.6455  11.0830  11.9684  13.6184
    14.6969  14.8714  20.9068  21.1947  23.3132  24.5569  25.6817  27.0438
    27.6611  30.9498  31.3045  32.9269  34.1017  34.5578  36.2413  36.8778
    37.9935  39.6610

          k = 0.1111 0.2222 0.3333 (   930 PWs)   bands (ev):

   -23.9106  -7.2696  -6.6605  -6.1032  10.0224  11.0982  12.4253  13.2173
    14.9348  15.0804  19.9401  21.7155  22.6930  24.5645  26.3994  27.6962
    28.4471  29.7214  30.4540  32.9714  34.3283  35.6263  36.9440  38.6563
    39.1990  40.3652

          k = 0.1111 0.2222 0.4444 (   930 PWs)   bands (ev):

   -23.8672  -7.5943  -6.6129  -6.0633  10.1409  11.0969  12.4346  12.6965
    15.2026  16.2418  20.1179  21.9928  22.2355  23.7156  24.9792  26.8670
    28.8107  31.8074  32.4854  33.1538  34.5833  35.1535  35.9213  38.1246
    39.1957  39.5933

          k = 0.1111 0.3333 0.3333 (   931 PWs)   bands (ev):

   -23.8460  -7.2050  -7.1684  -6.0445   9.6260  11.1576  13.3146  13.3328
    14.9832  15.4558  20.0420  20.9379  22.7081  24.8033  26.8551  28.5536
    28.5579  28.9442  30.4141  30.6464  36.7801  37.6823  37.7146  38.2196
    39.3921  39.3929

          k = 0.1111 0.3333 0.4444 (   931 PWs)   bands (ev):

   -23.8030  -7.5069  -7.1317  -6.0056   9.2189  11.4241  12.9106  13.4905
    15.3587  16.8303  19.8527  21.1922  22.3745  24.0113  25.2132  28.2003
    28.5056  30.2330  31.1166  33.3793  34.3717  36.4983  38.0530  39.2706
    39.4769  40.1749

          k = 0.1111 0.4444 0.4444 (   929 PWs)   bands (ev):

   -23.7604  -7.4510  -7.4456  -5.9674   8.6853  11.7273  13.1166  13.1261
    17.0529  17.2280  19.5078  20.5124  22.6998  24.1216  25.1372  25.7134
    29.2911  31.0368  32.9193  33.3380  33.9059  37.2071  37.2837  37.3075
    40.0127  40.6914

          k = 0.2222 0.2222 0.2222 (   934 PWs)   bands (ev):

   -23.9202  -6.7204  -6.6488  -6.6488  10.0398  12.0155  12.0155  13.6372
    13.6372  14.2970  21.6244  22.8618  22.8618  25.3319  25.3319  25.4477
    27.2976  31.7109  31.7109  33.0740  35.3641  35.5465  35.5465  37.2793
    37.2793  37.9087

          k = 0.2222 0.2222 0.3333 (   932 PWs)   bands (ev):

   -23.8554  -7.2016  -6.6223  -6.5802  10.1433  11.8292  12.2153  12.9607
    14.1564  15.4309  20.8290  22.2152  23.5411  24.5686  25.3607  27.8693
    28.6789  28.6982  31.8976  32.7386  34.1401  35.8409  37.4085  38.2546
    39.2403  39.2783

          k = 0.2222 0.2222 0.4444 (   933 PWs)   bands (ev):

   -23.8123  -7.5217  -6.5752  -6.5347  10.0731  11.4949  12.1173  12.8675
    14.4288  17.4510  20.4695  21.3630  23.1257  24.4411  25.4015  25.9620
    30.6704  31.1697  31.7366  32.6447  33.9074  35.7067  36.5673  36.9913
    37.5572  41.6431

          k = 0.2222 0.3333 0.3333 (   947 PWs)   bands (ev):

   -23.7913  -7.1385  -7.1036  -6.5325   9.8386  11.5280  12.0386  13.3509
    15.1448  16.1011  19.9617  22.1735  23.9374  24.7987  27.1265  27.2771
    28.7261  29.5031  29.8565  31.9707  35.4388  35.9342  37.3769  37.9960
    39.3984  39.8552

          k = 0.2222 0.3333 0.4444 (   943 PWs)   bands (ev):

   -23.7487  -7.4369  -7.0676  -6.4876   9.4844  11.3492  11.9103  13.4337
    15.7060  18.1671  19.3302  21.2844  23.9383  24.6472  25.7698  27.5468
    29.6106  30.2390  31.7336  32.1441  34.5208  35.0939  35.7947  37.6855
    39.1112  40.2809

          k = 0.2222 0.4444 0.4444 (   944 PWs)   bands (ev):

   -23.7064  -7.3827  -7.3775  -6.4437   9.0032  11.5070  11.5964  13.5045
    17.9944  18.3935  18.8576  20.6807  23.8539  24.8884  25.5260  26.5890
    31.0243  31.2785  32.0692  32.5782  33.2702  35.4357  35.8274  36.1301
    37.6273  39.1620

          k = 0.3333 0.3333 0.3333 (   943 PWs)   bands (ev):

   -23.7279  -7.0744  -7.0280  -7.0280   9.9071  11.0037  11.0037  15.3179
    15.3179  16.8816  18.5548  24.2335  24.2335  25.5514  26.9514  26.9514
    29.1130  29.1130  29.5537  33.4207  33.9655  35.5722  35.5722  38.3381
    38.5837  38.5838

          k = 0.3333 0.3333 0.4444 (   940 PWs)   bands (ev):

   -23.6857  -7.3553  -7.0064  -6.9777   9.6911  10.4480  10.9904  15.4351
    16.2798  17.6947  19.0744  22.2611  25.5196  25.8240  26.2938  26.3102
    29.4801  31.0236  31.2862  32.9609  33.5260  33.8432  35.1497  37.1300
    37.2166  39.9766

          k = 0.3333 0.4444 0.4444 (   941 PWs)   bands (ev):

   -23.6438  -7.3030  -7.2982  -6.9420   9.4373  10.4158  10.4782  15.9367
    16.7946  18.3707  19.8381  21.8740  24.3546  26.1322  26.2982  27.2128
    31.1970  31.4260  31.8543  32.2970  32.8094  34.3247  34.5432  34.5702
    38.1317  38.3552

          k = 0.4444 0.4444 0.4444 (   940 PWs)   bands (ev):

   -23.6023  -7.2517  -7.2452  -7.2452   9.7349   9.8925   9.8925  15.8290
    18.5311  18.5311  20.5531  22.4634  22.4634  27.4420  27.5154  27.5154
    30.7968  31.5752  31.5752  32.2485  32.9936  33.3876  33.3876  35.4459
    38.6000  38.6000

     the Fermi energy is    10.9070 ev

!    total energy              =    -471.70026962 Ry
     total all-electron energy =    -17721.224998 Ry
     estimated scf accuracy    <       0.00001406 Ry
     smearing contrib. (-TS)   =       0.00021104 Ry
     internal energy E=F+TS    =    -471.70048066 Ry

     The total energy is F=E-TS. E is the sum of the following terms:
     one-electron contribution =      -6.65958529 Ry
     hartree contribution      =       8.75166056 Ry
     xc contribution           =     -73.18005677 Ry
     ewald contribution        =     -54.83702343 Ry
     one-center paw contrib.   =    -345.77547573 Ry

     convergence has been achieved in   3 iterations

     Writing all to output data dir ./work/POSCAR.save/

     init_run     :      0.20s CPU      0.23s WALL (       1 calls)
     electrons    :      1.07s CPU      1.39s WALL (       1 calls)

     Called by init_run:
     wfcinit      :      0.06s CPU      0.06s WALL (       1 calls)
     potinit      :      0.06s CPU      0.07s WALL (       1 calls)
     hinit0       :      0.08s CPU      0.09s WALL (       1 calls)

     Called by electrons:
     c_bands      :      0.87s CPU      1.15s WALL (       4 calls)
     sum_band     :      0.10s CPU      0.10s WALL (       4 calls)
     v_of_rho     :      0.00s CPU      0.00s WALL (       4 calls)
     newd         :      0.01s CPU      0.01s WALL (       4 calls)
     PAW_pot      :      0.11s CPU      0.14s WALL (       4 calls)
     mix_rho      :      0.00s CPU      0.00s WALL (       4 calls)

     Called by c_bands:
     init_us_2    :      0.01s CPU      0.01s WALL (     315 calls)
     init_us_2:cp :      0.00s CPU      0.00s WALL (     315 calls)
     cegterg      :      0.85s CPU      0.89s WALL (     140 calls)

     Called by *egterg:
     cdiaghg      :      0.29s CPU      0.30s WALL (     661 calls)
     h_psi        :      0.48s CPU      0.51s WALL (     731 calls)
     s_psi        :      0.01s CPU      0.01s WALL (     731 calls)
     g_psi        :      0.00s CPU      0.00s WALL (     556 calls)

     Called by h_psi:
     h_psi:calbec :      0.02s CPU      0.02s WALL (     731 calls)
     vloc_psi     :      0.45s CPU      0.47s WALL (     731 calls)
     add_vuspsi   :      0.01s CPU      0.01s WALL (     731 calls)

     General routines
     calbec       :      0.03s CPU      0.03s WALL (     871 calls)
     fft          :      0.06s CPU      0.06s WALL (      51 calls)
     ffts         :      0.03s CPU      0.03s WALL (       8 calls)
     fftw         :      0.48s CPU      0.50s WALL (   25336 calls)
     interpolate  :      0.03s CPU      0.03s WALL (       4 calls)

     Parallel routines

     PWSCF        :      1.44s CPU      2.22s WALL


   This run was terminated on:  22:40: 4  15May2024            

=------------------------------------------------------------------------------=
   JOB DONE.
=------------------------------------------------------------------------------=
