
     Program PWSCF v.7.1 starts on 15May2024 at 22:40: 5 

     This program is part of the open-source Quantum ESPRESSO suite
     for quantum simulation of materials; please cite
         "P. Giannozzi et al., J. Phys.:Condens. Matter 21 395502 (2009);
         "P. Giannozzi et al., J. Phys.:Condens. Matter 29 465901 (2017);
         "P. Giannozzi et al., J. Chem. Phys. 152 154105 (2020);
          URL http://www.quantum-espresso.org", 
     in publications or presentations arising from this work. More details at
     http://www.quantum-espresso.org/quote

     Parallel version (MPI & OpenMP), running on      10 processor cores
     Number of MPI processes:                10
     Threads/MPI process:                     1

     MPI processes distributed on     1 nodes
     14556 MiB available memory on the printing compute node when the environment starts

     Waiting for input...
     Reading input from standard input

     Current dimensions of program PWSCF are:
     Max number of different atomic species (ntypx) = 10
     Max number of k-points (npk) =  40000
     Max angular momentum in pseudopotentials (lmaxx) =  4

     Atomic positions and unit cell read from directory:
     ./work/POSCAR.save/

     file Ce.pbe-spdn-kjpaw_psl.1.0.0.UPF: wavefunction(s)  5D renormalized
     Message from routine setup:
     using ibrav=0 with symmetry is DISCOURAGED, use correct ibrav instead

     R & G space division:  proc/nbgrp/npool/nimage =      10
     Subspace diagonalization in iterative solution of the eigenvalue problem:
     a serial algorithm will be used


     Parallelization info
     --------------------
     sticks:   dense  smooth     PW     G-vecs:    dense   smooth      PW
     Min          54      46     14                  982      744     134
     Max          56      48     15                  986      745     137
     Sum         553     465    145                 9843     7441    1357

     Using Slab Decomposition



     bravais-lattice index     =            0
     lattice parameter (alat)  =       6.2606  a.u.
     unit-cell volume          =     245.3856 (a.u.)^3
     number of atoms/cell      =            1
     number of atomic types    =            1
     number of electrons       =        11.00
     number of Kohn-Sham states=           26
     kinetic-energy cutoff     =      37.0000  Ry
     charge density cutoff     =     179.0000  Ry
     Exchange-correlation= SLA  PW   PBX  PBC
                           (   1   4   3   4   0   0   0)

     celldm(1)=   6.260606  celldm(2)=   0.000000  celldm(3)=   0.000000
     celldm(4)=   0.000000  celldm(5)=   0.000000  celldm(6)=   0.000000

     crystal axes: (cart. coord. in units of alat)
               a(1) = (   1.000000   0.000000   0.000000 )  
               a(2) = (   0.000000   1.000000   0.000000 )  
               a(3) = (   0.000000   0.000000   1.000000 )  

     reciprocal axes: (cart. coord. in units 2 pi/alat)
               b(1) = (  1.000000  0.000000  0.000000 )  
               b(2) = (  0.000000  1.000000  0.000000 )  
               b(3) = (  0.000000  0.000000  1.000000 )  


     PseudoPot. # 1 for Ce read from file:
     ./../../../../pseudo/psl100_PBE/Ce.pbe-spdn-kjpaw_psl.1.0.0.UPF
     MD5 check sum: 1a25380276e46fcecd5a173acdad072c
     Pseudo is Projector augmented-wave + core cor, Zval = 11.0
     Generated using 'atomic' code by A. Dal Corso  v.7.2
     Shape of augmentation charge: PSQ
     Using radial grid of 1255 points,  6 beta functions with: 
                l(1) =   0
                l(2) =   0
                l(3) =   1
                l(4) =   1
                l(5) =   2
                l(6) =   2
     Q(r) pseudized with 0 coefficients 


     atomic species   valence    mass     pseudopotential
        Ce            11.00   140.11600     Ce( 1.00)

     48 Sym. Ops., with inversion, found



   Cartesian axes

     site n.     atom                  positions (alat units)
         1           Ce  tau(   1) = (   0.0000000   0.0000000   0.0000000  )

     number of k points=    91  Methfessel-Paxton smearing, width (Ry)=  0.0200
                       cart. coord. in units 2pi/alat
        k(    1) = (   0.0000000   0.5000000   0.5000000), wk =   0.0219780
        k(    2) = (   0.0500000   0.5000000   0.5000000), wk =   0.0219780
        k(    3) = (   0.1000000   0.5000000   0.5000000), wk =   0.0219780
        k(    4) = (   0.1500000   0.5000000   0.5000000), wk =   0.0219780
        k(    5) = (   0.2000000   0.5000000   0.5000000), wk =   0.0219780
        k(    6) = (   0.2500000   0.5000000   0.5000000), wk =   0.0219780
        k(    7) = (   0.3000000   0.5000000   0.5000000), wk =   0.0219780
        k(    8) = (   0.3500000   0.5000000   0.5000000), wk =   0.0219780
        k(    9) = (   0.4000000   0.5000000   0.5000000), wk =   0.0219780
        k(   10) = (   0.4500000   0.5000000   0.5000000), wk =   0.0219780
        k(   11) = (   0.5000000   0.5000000   0.5000000), wk =   0.0219780
        k(   12) = (   0.4750000   0.4750000   0.4750000), wk =   0.0219780
        k(   13) = (   0.4500000   0.4500000   0.4500000), wk =   0.0219780
        k(   14) = (   0.4250000   0.4250000   0.4250000), wk =   0.0219780
        k(   15) = (   0.4000000   0.4000000   0.4000000), wk =   0.0219780
        k(   16) = (   0.3750000   0.3750000   0.3750000), wk =   0.0219780
        k(   17) = (   0.3500000   0.3500000   0.3500000), wk =   0.0219780
        k(   18) = (   0.3250000   0.3250000   0.3250000), wk =   0.0219780
        k(   19) = (   0.3000000   0.3000000   0.3000000), wk =   0.0219780
        k(   20) = (   0.2750000   0.2750000   0.2750000), wk =   0.0219780
        k(   21) = (   0.2500000   0.2500000   0.2500000), wk =   0.0219780
        k(   22) = (   0.2250000   0.2250000   0.2250000), wk =   0.0219780
        k(   23) = (   0.2000000   0.2000000   0.2000000), wk =   0.0219780
        k(   24) = (   0.1750000   0.1750000   0.1750000), wk =   0.0219780
        k(   25) = (   0.1500000   0.1500000   0.1500000), wk =   0.0219780
        k(   26) = (   0.1250000   0.1250000   0.1250000), wk =   0.0219780
        k(   27) = (   0.1000000   0.1000000   0.1000000), wk =   0.0219780
        k(   28) = (   0.0750000   0.0750000   0.0750000), wk =   0.0219780
        k(   29) = (   0.0500000   0.0500000   0.0500000), wk =   0.0219780
        k(   30) = (   0.0250000   0.0250000   0.0250000), wk =   0.0219780
        k(   31) = (   0.0000000   0.0000000   0.0000000), wk =   0.0219780
        k(   32) = (   0.0500000   0.0000000   0.0000000), wk =   0.0219780
        k(   33) = (   0.1000000   0.0000000   0.0000000), wk =   0.0219780
        k(   34) = (   0.1500000   0.0000000   0.0000000), wk =   0.0219780
        k(   35) = (   0.2000000   0.0000000   0.0000000), wk =   0.0219780
        k(   36) = (   0.2500000   0.0000000   0.0000000), wk =   0.0219780
        k(   37) = (   0.3000000   0.0000000   0.0000000), wk =   0.0219780
        k(   38) = (   0.3500000   0.0000000   0.0000000), wk =   0.0219780
        k(   39) = (   0.4000000   0.0000000   0.0000000), wk =   0.0219780
        k(   40) = (   0.4500000   0.0000000   0.0000000), wk =   0.0219780
        k(   41) = (   0.5000000   0.0000000   0.0000000), wk =   0.0219780
        k(   42) = (   0.5000000   0.0500000   0.0000000), wk =   0.0219780
        k(   43) = (   0.5000000   0.1000000   0.0000000), wk =   0.0219780
        k(   44) = (   0.5000000   0.1500000   0.0000000), wk =   0.0219780
        k(   45) = (   0.5000000   0.2000000   0.0000000), wk =   0.0219780
        k(   46) = (   0.5000000   0.2500000   0.0000000), wk =   0.0219780
        k(   47) = (   0.5000000   0.3000000   0.0000000), wk =   0.0219780
        k(   48) = (   0.5000000   0.3500000   0.0000000), wk =   0.0219780
        k(   49) = (   0.5000000   0.4000000   0.0000000), wk =   0.0219780
        k(   50) = (   0.5000000   0.4500000   0.0000000), wk =   0.0219780
        k(   51) = (   0.5000000   0.5000000   0.0000000), wk =   0.0219780
        k(   52) = (   0.4750000   0.4750000   0.0000000), wk =   0.0219780
        k(   53) = (   0.4500000   0.4500000   0.0000000), wk =   0.0219780
        k(   54) = (   0.4250000   0.4250000   0.0000000), wk =   0.0219780
        k(   55) = (   0.4000000   0.4000000   0.0000000), wk =   0.0219780
        k(   56) = (   0.3750000   0.3750000   0.0000000), wk =   0.0219780
        k(   57) = (   0.3500000   0.3500000   0.0000000), wk =   0.0219780
        k(   58) = (   0.3250000   0.3250000   0.0000000), wk =   0.0219780
        k(   59) = (   0.3000000   0.3000000   0.0000000), wk =   0.0219780
        k(   60) = (   0.2750000   0.2750000   0.0000000), wk =   0.0219780
        k(   61) = (   0.2500000   0.2500000   0.0000000), wk =   0.0219780
        k(   62) = (   0.2250000   0.2250000   0.0000000), wk =   0.0219780
        k(   63) = (   0.2000000   0.2000000   0.0000000), wk =   0.0219780
        k(   64) = (   0.1750000   0.1750000   0.0000000), wk =   0.0219780
        k(   65) = (   0.1500000   0.1500000   0.0000000), wk =   0.0219780
        k(   66) = (   0.1250000   0.1250000   0.0000000), wk =   0.0219780
        k(   67) = (   0.1000000   0.1000000   0.0000000), wk =   0.0219780
        k(   68) = (   0.0750000   0.0750000   0.0000000), wk =   0.0219780
        k(   69) = (   0.0500000   0.0500000   0.0000000), wk =   0.0219780
        k(   70) = (   0.0250000   0.0250000   0.0000000), wk =   0.0219780
        k(   71) = (   0.0000000   0.0000000   0.0000000), wk =   0.0219780
        k(   72) = (   0.0250000   0.0250000   0.0250000), wk =   0.0219780
        k(   73) = (   0.0500000   0.0500000   0.0500000), wk =   0.0219780
        k(   74) = (   0.0750000   0.0750000   0.0750000), wk =   0.0219780
        k(   75) = (   0.1000000   0.1000000   0.1000000), wk =   0.0219780
        k(   76) = (   0.1250000   0.1250000   0.1250000), wk =   0.0219780
        k(   77) = (   0.1500000   0.1500000   0.1500000), wk =   0.0219780
        k(   78) = (   0.1750000   0.1750000   0.1750000), wk =   0.0219780
        k(   79) = (   0.2000000   0.2000000   0.2000000), wk =   0.0219780
        k(   80) = (   0.2250000   0.2250000   0.2250000), wk =   0.0219780
        k(   81) = (   0.2500000   0.2500000   0.2500000), wk =   0.0219780
        k(   82) = (   0.2750000   0.2750000   0.2750000), wk =   0.0219780
        k(   83) = (   0.3000000   0.3000000   0.3000000), wk =   0.0219780
        k(   84) = (   0.3250000   0.3250000   0.3250000), wk =   0.0219780
        k(   85) = (   0.3500000   0.3500000   0.3500000), wk =   0.0219780
        k(   86) = (   0.3750000   0.3750000   0.3750000), wk =   0.0219780
        k(   87) = (   0.4000000   0.4000000   0.4000000), wk =   0.0219780
        k(   88) = (   0.4250000   0.4250000   0.4250000), wk =   0.0219780
        k(   89) = (   0.4500000   0.4500000   0.4500000), wk =   0.0219780
        k(   90) = (   0.4750000   0.4750000   0.4750000), wk =   0.0219780
        k(   91) = (   0.5000000   0.5000000   0.5000000), wk =   0.0219780

     Dense  grid:     9843 G-vectors     FFT dimensions: (  27,  27,  27)

     Smooth grid:     7441 G-vectors     FFT dimensions: (  25,  25,  25)

     Estimated max dynamical RAM per process >       4.23 MB

     Estimated total dynamical RAM >      42.27 MB

     The potential is recalculated from file :
     ./work/POSCAR.save/charge-density

     Starting wfcs are   13 randomized atomic wfcs +   13 random wfcs
     Checking if some PAW data can be deallocated... 

     Band Structure Calculation
     Davidson diagonalization with overlap

     ethr =  6.64E-07,  avg # of iterations = 18.5

     total cpu time spent up to now is        3.4 secs

     End of band structure calculation

          k = 0.0000 0.5000 0.5000 (   952 PWs)   bands (ev):

   -23.7757  -7.5124  -7.5124  -5.7618   8.4306  11.2230  14.3633  14.3633
    16.0851  16.0851  19.3828  22.1730  23.2782  23.2782  23.2966  24.4996
    29.3950  31.7303  31.7303  35.7459  36.0966  36.1574  36.6457  36.6457
    41.4736  41.4736

          k = 0.0500 0.5000 0.5000 (   940 PWs)   bands (ev):

   -23.7713  -7.5068  -7.5068  -5.8040   8.4543  11.3487  13.9678  13.9678
    16.5143  16.5143  19.3898  21.5126  23.3355  23.3355  23.9503  24.5014
    29.4848  31.7475  31.7475  35.6333  35.9730  36.1852  36.3925  36.3925
    41.6540  41.7970

          k = 0.1000 0.5000 0.5000 (   936 PWs)   bands (ev):

   -23.7585  -7.4906  -7.4906  -5.9249   8.5248  11.7190  13.2454  13.2454
    17.3307  17.3307  19.4102  20.5186  23.5122  23.5122  24.5032  24.9056
    29.7709  31.7980  31.7980  35.3201  35.6411  35.7835  35.7835  36.2681
    40.4875  41.1063

          k = 0.1500 0.5000 0.5000 (   944 PWs)   bands (ev):

   -23.7386  -7.4653  -7.4653  -6.1081   8.6392  12.3163  12.5047  12.5047
    18.2044  18.2044  19.4422  19.5324  23.8221  23.8221  24.4928  25.7749
    30.2949  31.8786  31.8786  34.8650  35.0426  35.0426  35.1870  36.4040
    38.4496  40.4483

          k = 0.2000 0.5000 0.5000 (   936 PWs)   bands (ev):

   -23.7132  -7.4330  -7.4330  -6.3304   8.7931  11.8176  11.8176  13.1156
    18.6009  19.0313  19.0313  19.4831  24.2828  24.2828  24.4476  26.4708
    31.0868  31.9839  31.9839  34.3002  34.3002  34.3340  34.6902  36.4891
    36.5890  39.8039

          k = 0.2500 0.5000 0.5000 (   944 PWs)   bands (ev):

   -23.6849  -7.3969  -7.3969  -6.5674   8.9785  11.2100  11.2100  14.0871
    17.7462  19.5292  19.7522  19.7522  24.3282  24.9020  24.9020  26.9820
    32.1041  32.1041  32.1140  33.6278  33.6278  33.7829  34.2067  34.6782
    36.8164  39.2491

          k = 0.3000 0.5000 0.5000 (   944 PWs)   bands (ev):

   -23.6563  -7.3603  -7.3603  -6.7953   9.1834  10.6966  10.6966  15.1990
    16.9877  19.5761  20.3350  20.3350  24.0745  25.6550  25.6550  27.3466
    32.2186  32.2186  33.0842  33.0842  33.0928  33.2575  33.2722  33.7738
    37.0749  38.8635

          k = 0.3500 0.5000 0.5000 (   940 PWs)   bands (ev):

   -23.6302  -7.3269  -7.3269  -6.9939   9.3898  10.2874  10.2874  16.3475
    16.4160  19.6193  20.7740  20.7740  23.6121  26.4666  26.4666  27.6057
    31.8201  32.2625  32.2625  32.7660  32.7660  32.7945  33.4161  34.3873
    37.3455  38.7806

          k = 0.4000 0.5000 0.5000 (   940 PWs)   bands (ev):

   -23.6093  -7.3001  -7.3001  -7.1472   9.5728   9.9898   9.9898  15.8532
    17.6917  19.6541  21.0782  21.0782  22.8910  27.2112  27.2112  27.7833
    30.9278  32.1775  32.1775  32.4291  32.7544  32.7544  33.1499  35.2077
    37.5969  39.2178

          k = 0.4500 0.5000 0.5000 (   940 PWs)   bands (ev):

   -23.5959  -7.2828  -7.2828  -7.2438   9.7016   9.8091   9.8091  15.5369
    18.9342  19.6767  21.2574  21.2574  21.9667  27.7362  27.7362  27.8888
    30.4232  32.1185  32.1185  32.1930  32.8659  32.8659  32.9859  35.5974
    37.7832  38.2496

          k = 0.5000 0.5000 0.5000 (   912 PWs)   bands (ev):

   -23.5912  -7.2767  -7.2767  -7.2767   9.7485   9.7485   9.7485  15.4275
    19.6848  19.6848  21.3167  21.3167  21.3167  27.9241  27.9241  27.9241
    30.2640  32.1113  32.1113  32.1113  32.9309  32.9309  32.9309  35.6942
    37.8534  37.8534

          k = 0.4750 0.4750 0.4750 (   940 PWs)   bands (ev):

   -23.5947  -7.2724  -7.2711  -7.2711   9.7448   9.7780   9.7780  15.5100
    19.3492  19.3492  21.1506  21.6521  21.6521  27.8132  27.8288  27.8288
    30.3795  32.0241  32.0241  32.3098  32.7736  32.9965  32.9965  35.6317
    38.0281  38.0281

          k = 0.4500 0.4500 0.4500 (   940 PWs)   bands (ev):

   -23.6052  -7.2593  -7.2540  -7.2540   9.7373   9.8662   9.8662  15.7528
    18.6895  18.6895  20.6888  22.3069  22.3069  27.5207  27.5803  27.5803
    30.7035  31.6849  31.6849  32.3637  32.8438  33.2902  33.2902  35.4797
    38.4837  38.4837

          k = 0.4250 0.4250 0.4250 (   940 PWs)   bands (ev):

   -23.6223  -7.2372  -7.2257  -7.2257   9.7350  10.0123  10.0123  16.1436
    17.9579  17.9579  20.0135  23.0100  23.0100  27.1237  27.2610  27.2610
    31.1381  31.1381  31.1769  31.8118  33.5605  33.7930  33.7930  35.3469
    38.8881  38.8881

          k = 0.4000 0.4000 0.4000 (   946 PWs)   bands (ev):

   -23.6458  -7.2062  -7.1864  -7.1864   9.7482  10.2147  10.2147  16.6652
    17.2159  17.2159  19.2091  23.6539  23.6539  26.6831  26.9669  26.9669
    30.5007  30.5007  31.1994  31.7396  34.1279  34.3926  34.3926  35.5339
    38.6119  38.6119

          k = 0.3750 0.3750 0.3750 (   943 PWs)   bands (ev):

   -23.6748  -7.1659  -7.1366  -7.1366   9.7856  10.4707  10.4707  16.4842
    16.4842  17.2979  18.3432  24.1218  24.1218  26.2371  26.8116  26.8116
    29.8615  29.8615  30.5722  32.3524  34.2003  34.9760  34.9760  36.3612
    38.3494  38.3494

          k = 0.3500 0.3500 0.3500 (   937 PWs)   bands (ev):

   -23.7089  -7.1162  -7.0767  -7.0767   9.8504  10.7765  10.7765  15.7739
    15.7739  17.4540  18.0326  24.2884  24.2884  25.8113  26.8708  26.8708
    29.3229  29.3229  29.9549  32.9917  34.0659  35.4116  35.4116  37.5120
    38.3744  38.3744

          k = 0.3250 0.3250 0.3250 (   937 PWs)   bands (ev):

   -23.7471  -7.0572  -7.0076  -7.0076   9.9392  11.1251  11.1251  15.0951
    15.0951  16.6034  18.8236  24.1694  24.1694  25.4294  26.9607  26.9607
    29.0860  29.0860  29.3612  33.6256  33.9247  35.6148  35.6148  38.7354
    38.7354  38.7543

          k = 0.3000 0.3000 0.3000 (   943 PWs)   bands (ev):

   -23.7885  -6.9889  -6.9302  -6.9302  10.0386  11.5029  11.5029  14.4630
    14.4630  15.8140  19.6525  23.8975  23.8975  25.1230  26.7616  26.7616
    28.7993  29.3590  29.3590  33.7302  34.3201  35.6477  35.6477  39.2387
    39.2387  39.8323

          k = 0.2750 0.2750 0.2750 (   943 PWs)   bands (ev):

   -23.8320  -6.9117  -6.8459  -6.8459  10.1214  11.8747  11.8747  13.9128
    13.9128  15.1328  20.4595  23.5690  23.5690  24.9460  26.3323  26.3323
    28.2742  29.9998  29.9998  33.5950  34.9200  35.6187  35.6187  39.3066
    39.3066  39.4495

          k = 0.2500 0.2500 0.2500 (   946 PWs)   bands (ev):

   -23.8767  -6.8266  -6.7562  -6.7562  10.1443  12.1280  12.1280  13.5558
    13.5558  14.6144  21.1456  23.2287  23.2287  24.9936  25.8462  25.8462
    27.7891  30.7929  30.7929  33.4247  35.3674  35.5863  35.5863  38.3921
    38.4950  38.4950

          k = 0.2250 0.2250 0.2250 (   934 PWs)   bands (ev):

   -23.9213  -6.7346  -6.6630  -6.6630  10.0577  12.0460  12.0460  13.6061
    13.6061  14.3157  21.5897  22.8973  22.8973  25.3825  25.3825  25.3825
    27.3465  31.6206  31.6206  33.1218  35.3913  35.5529  35.5529  37.3965
    37.3965  37.9085

          k = 0.2000 0.2000 0.2000 (   934 PWs)   bands (ev):

   -23.9648  -6.6379  -6.5684  -6.5684   9.8370  11.6981  11.6981  13.9897
    13.9897  14.2651  21.7607  22.5847  22.5847  24.9769  24.9769  26.1373
    26.9479  32.3479  32.3479  32.5113  35.0842  35.4260  35.4260  36.5276
    36.5276  38.1642

          k = 0.1750 0.1750 0.1750 (   931 PWs)   bands (ev):

   -24.0061  -6.5388  -6.4751  -6.4751   9.5071  11.2894  11.2894  14.4385
    14.4941  14.4941  21.7500  22.2957  22.2957  24.6516  24.6516  26.5943
    27.1570  31.5562  32.6101  32.6101  34.9219  35.2542  35.2542  36.2760
    36.2760  38.7363

          k = 0.1500 0.1500 0.1500 (   934 PWs)   bands (ev):

   -24.0443  -6.4406  -6.3858  -6.3858   9.1223  10.8960  10.8960  14.7782
    15.0324  15.0324  21.6563  22.0334  22.0334  24.4244  24.4244  26.2865
    28.3210  30.4394  32.0395  32.0395  34.9648  35.6658  35.6658  36.4046
    36.4046  39.3916

          k = 0.1250 0.1250 0.1250 (   937 PWs)   bands (ev):

   -24.0783  -6.3469  -6.3034  -6.3034   8.7338  10.5435  10.5435  15.2244
    15.5637  15.5637  21.5374  21.8003  21.8003  24.3118  24.3118  26.0253
    29.1394  29.7195  31.0468  31.0468  35.1526  36.3758  36.3758  36.7989
    36.7989  40.0353

          k = 0.1000 0.1000 0.1000 (   931 PWs)   bands (ev):

   -24.1073  -6.2620  -6.2309  -6.2309   8.3788  10.2438  10.2438  15.7237
    16.0563  16.0563  21.4230  21.5997  21.5997  24.3291  24.3291  25.8111
    28.1532  29.9696  29.9696  30.8634  35.4713  36.8365  36.8365  37.6748
    37.6748  40.5730

          k = 0.0750 0.0750 0.0750 (   934 PWs)   bands (ev):

   -24.1307  -6.1901  -6.1710  -6.1710   8.0819  10.0042  10.0042  16.2229
    16.4796  16.4796  21.3285  21.4358  21.4358  24.4872  24.4872  25.6441
    27.2002  28.9205  28.9205  31.9906  35.9590  37.2467  37.2467  38.7121
    38.7121  40.7848

          k = 0.0500 0.0500 0.0500 (   934 PWs)   bands (ev):

   -24.1478  -6.1352  -6.1262  -6.1262   7.8594   9.8297   9.8297  16.6613
    16.8052  16.8052  21.2616  21.3135  21.3135  24.7846  24.7846  25.5247
    26.4297  27.9568  27.9568  32.8742  36.6878  37.6936  37.6936  39.6169
    39.6169  40.5053

          k = 0.0250 0.0250 0.0250 (   931 PWs)   bands (ev):

   -24.1582  -6.1009  -6.0985  -6.0985   7.7220   9.7236   9.7236  16.9686
    17.0102  17.0102  21.2237  21.2376  21.2376  25.1772  25.1772  25.4530
    25.9190  27.1536  27.1536  33.4033  37.6583  38.1576  38.1576  39.5565
    39.5565  39.9008

          k = 0.0000 0.0000 0.0000 (   925 PWs)   bands (ev):

   -24.1617  -6.0891  -6.0891  -6.0891   7.6755   9.6880   9.6880  17.0802
    17.0802  17.0802  21.2119  21.2119  21.2119  25.4290  25.4290  25.4290
    25.7385  26.7633  26.7633  33.5732  38.4465  38.4465  38.4465  39.2667
    39.2667  39.2667

          k = 0.0500 0.0000 0.0000 (   929 PWs)   bands (ev):

   -24.1570  -6.1374  -6.0851  -6.0851   7.7364   9.7046   9.7667  16.9145
    16.9145  17.0895  20.9579  21.3809  21.3809  24.7563  25.5285  25.5285
    25.9458  26.9115  27.5105  33.3632  37.6159  37.6159  38.7370  38.8099
    40.1092  40.1092

          k = 0.1000 0.0000 0.0000 (   920 PWs)   bands (ev):

   -24.1435  -6.2749  -6.0733  -6.0733   7.9049   9.7534  10.0047  16.4984
    16.4984  17.1167  20.3564  21.7969  21.7969  23.7505  25.8343  25.8343
    26.2615  27.5010  28.7400  32.8481  36.5382  36.5382  37.6873  38.7144
    39.4946  41.1308

          k = 0.1500 0.0000 0.0000 (   936 PWs)   bands (ev):

   -24.1223  -6.4819  -6.0550  -6.0550   8.1474   9.8314  10.3990  15.9701
    15.9701  17.1596  19.6486  22.3004  22.3004  22.7792  26.3587  26.3587
    26.4518  28.5167  30.0851  32.2089  35.5254  35.5254  35.9668  37.4577
    40.5380  41.7720

          k = 0.2000 0.0000 0.0000 (   924 PWs)   bands (ev):

   -24.0954  -6.7314  -6.0317  -6.0317   8.4309   9.9338  10.9220  15.4251
    15.4251  17.2148  18.9899  21.8876  22.7861  22.7861  26.5784  27.0928
    27.0928  29.7168  31.5017  31.5586  34.0616  34.6207  34.6207  36.5305
    41.7563  42.0469

          k = 0.2500 0.0000 0.0000 (   932 PWs)   bands (ev):

   -24.0652  -6.9951  -6.0058  -6.0058   8.7350  10.0530  11.5021  14.9160
    14.9160  17.2774  18.4952  21.0938  23.2149  23.2149  26.6285  27.9807
    27.9807  30.8926  30.9544  32.2770  32.9731  33.8716  33.8716  35.8537
    42.1694  42.1694

          k = 0.3000 0.0000 0.0000 (   924 PWs)   bands (ev):

   -24.0348  -7.2470  -5.9796  -5.9796   9.0486  10.1793  12.0223  14.4730
    14.4730  17.3418  18.2855  20.4123  23.5836  23.5836  26.4715  28.9011
    28.9011  30.4283  30.6534  31.9232  33.3717  33.3717  34.4844  35.6475
    42.1872  42.1872

          k = 0.3500 0.0000 0.0000 (   928 PWs)   bands (ev):

   -24.0070  -7.4654  -5.9558  -5.9558   9.3586  10.2999  12.3576  14.1138
    14.1138  17.4013  18.4758  19.8579  23.8940  23.8940  25.8549  29.6334
    29.6334  29.7236  30.0005  32.1938  33.3112  33.3112  36.0152  36.2610
    41.8287  41.8287

          k = 0.4000 0.0000 0.0000 (   932 PWs)   bands (ev):

   -23.9848  -7.6332  -5.9367  -5.9367   9.6404  10.4010  12.4690  13.8500
    13.8500  17.4497  19.0872  19.4461  24.1383  24.1383  24.7356  29.3991
    29.6850  29.9660  29.9660  32.0027  33.8675  33.8675  37.5315  37.5569
    40.5007  40.5007

          k = 0.4500 0.0000 0.0000 (   916 PWs)   bands (ev):

   -23.9704  -7.7386  -5.9244  -5.9244   9.8497  10.4686  12.4460  13.6891
    13.6891  17.4813  19.1918  19.9677  23.4763  24.2984  24.2984  29.3887
    29.4918  30.0095  30.0095  31.7328  34.8316  34.8316  38.9622  39.0258
    39.0258  39.1687

          k = 0.5000 0.0000 0.0000 (   916 PWs)   bands (ev):

   -23.9655  -7.7746  -5.9202  -5.9202   9.9294  10.4925  12.4184  13.6350
    13.6350  17.4923  19.1057  20.5536  22.7571  24.3547  24.3547  29.4191
    29.4266  29.9962  29.9962  31.6147  35.4579  35.4579  38.2431  38.2431
    39.9168  40.7182

          k = 0.5000 0.0500 0.0000 (   914 PWs)   bands (ev):

   -23.9610  -7.7684  -5.9651  -5.9164  10.0018  10.5617  12.1372  13.6503
    13.8489  17.3630  19.2578  20.5322  22.7756  24.1629  24.5718  28.6340
    29.4211  29.7216  30.8223  32.2443  35.2969  35.4692  37.8274  38.2936
    39.2849  40.7737

          k = 0.5000 0.1000 0.0000 (   922 PWs)   bands (ev):

   -23.9479  -7.7506  -6.0934  -5.9054  10.1637  10.8156  11.5752  13.6951
    14.2253  17.0209  19.6908  20.4593  22.8290  23.7145  25.1772  27.6644
    28.4984  30.5081  31.8855  33.2970  34.8773  35.5019  37.0933  37.7880
    38.4494  40.8369

          k = 0.5000 0.1500 0.0000 (   920 PWs)   bands (ev):

   -23.9273  -7.7224  -6.2871  -5.8881  10.3275  10.9558  11.3163  13.7667
    14.5852  16.5606  20.3120  20.3382  22.9096  23.2228  26.0769  26.7495
    27.6347  31.5691  32.9346  34.1552  34.3205  35.5538  36.0030  36.6398
    38.7220  40.9336

          k = 0.5000 0.2000 0.0000 (   928 PWs)   bands (ev):

   -23.9013  -7.6866  -6.5217  -5.8663  10.3529  10.4840  12.0328  13.8603
    14.9075  16.0651  20.0691  21.0985  22.8322  22.9964  25.9113  26.9505
    27.1880  32.5566  33.8074  33.9142  34.2030  34.2997  35.6207  37.1075
    39.1270  41.0424

          k = 0.5000 0.2500 0.0000 (   928 PWs)   bands (ev):

   -23.8721  -7.6464  -6.7707  -5.8419   9.8026  10.6454  12.8986  13.9689
    15.2005  15.5900  19.7474  21.8418  22.5987  23.0372  25.1645  26.5859
    28.4557  31.7001  33.3089  33.6834  34.5695  34.7719  35.6970  38.2402
    39.6701  41.0707

          k = 0.5000 0.3000 0.0000 (   928 PWs)   bands (ev):

   -23.8426  -7.6057  -7.0096  -5.8173   9.3275  10.8103  13.8401  14.0831
    15.1696  15.4695  19.4175  22.4379  22.5109  22.9510  24.5233  26.7059
    29.8448  29.9411  32.7458  33.0855  35.4691  35.7755  36.0069  39.4806
    40.3172  40.5683

          k = 0.5000 0.3500 0.0000 (   932 PWs)   bands (ev):

   -23.8158  -7.5683  -7.2172  -5.7951   8.9432  10.9676  14.1917  14.7566
    14.8255  15.7099  19.1814  22.5407  22.7107  22.8540  24.0021  27.3171
    28.1799  31.3319  32.3120  32.5519  35.8485  35.9949  37.5606  39.2257
    40.5086  40.9697

          k = 0.5000 0.4000 0.0000 (   932 PWs)   bands (ev):

   -23.7943  -7.5384  -7.3773  -5.7772   8.6610  11.1007  14.2820  14.5713
    15.5040  15.9066  19.1370  22.4502  22.6868  23.0956  23.6156  26.5540
    28.1972  31.9930  32.1294  32.8978  35.9089  36.3593  37.7594  39.1451
    39.7133  41.1143

          k = 0.5000 0.4500 0.0000 (   932 PWs)   bands (ev):

   -23.7804  -7.5190  -7.4779  -5.7657   8.4886  11.1910  14.3421  14.4157
    15.9493  16.0384  19.2783  22.2476  22.9850  23.2334  23.3773  25.1936
    29.0273  31.7968  31.8422  34.5138  35.9526  36.5743  36.6133  38.0367
    40.6372  41.3924

          k = 0.5000 0.5000 0.0000 (   952 PWs)   bands (ev):

   -23.7757  -7.5124  -7.5124  -5.7618   8.4306  11.2230  14.3633  14.3633
    16.0851  16.0851  19.3828  22.1730  23.2782  23.2782  23.2966  24.4996
    29.3950  31.7303  31.7303  35.7459  36.0966  36.1574  36.6457  36.6457
    41.4736  41.4736

          k = 0.4750 0.4750 0.0000 (   938 PWs)   bands (ev):

   -23.7781  -7.5059  -7.5048  -5.7638   8.4596  11.2068  14.3671  14.3750
    16.0397  16.0414  19.3243  22.2080  22.9700  23.3370  23.4152  24.8553
    29.2169  31.5439  31.9980  35.1439  35.5645  36.3880  37.1810  37.2160
    41.1605  41.2488

          k = 0.4500 0.4500 0.0000 (   932 PWs)   bands (ev):

   -23.7852  -7.4869  -7.4824  -5.7697   8.5458  11.1588  14.3792  14.4102
    15.9005  15.9121  19.1854  22.2062  22.5488  23.4573  23.7916  25.5144
    28.8492  31.0741  32.6425  34.2319  34.8348  36.9878  37.9177  38.0149
    40.4871  40.6659

          k = 0.4250 0.4250 0.0000 (   932 PWs)   bands (ev):

   -23.7970  -7.4552  -7.4454  -5.7794   8.6866  11.0813  14.4007  14.4685
    15.6636  15.7021  19.0379  21.7881  22.6231  23.6550  24.3374  26.2047
    28.5115  30.4697  33.2897  33.4791  34.0974  37.7981  38.6595  38.7009
    39.7033  39.8801

          k = 0.4000 0.4000 0.0000 (   934 PWs)   bands (ev):

   -23.8131  -7.4110  -7.3944  -5.7928   8.8772  10.9786  14.4340  14.5495
    15.3327  15.4193  18.9357  21.3296  22.8433  23.9258  24.9890  26.7819
    28.3871  29.8289  32.3496  33.3651  34.4283  38.5341  38.9980  39.0681
    39.1308  39.3803

          k = 0.3750 0.3750 0.0000 (   928 PWs)   bands (ev):

   -23.8330  -7.3545  -7.3303  -5.8094   9.1086  10.8576  14.4816  14.6525
    14.9238  15.0756  18.9004  20.9517  23.0682  24.2631  25.6941  27.0812
    28.6759  29.2129  31.4254  32.6421  35.4498  37.9145  38.0870  39.2310
    39.8224  40.0479

          k = 0.3500 0.3500 0.0000 (   936 PWs)   bands (ev):

   -23.8562  -7.2862  -7.2540  -5.8288   9.3632  10.7310  14.4600  14.5463
    14.6890  14.7768  18.9317  20.6699  23.2430  24.6570  26.3809  27.2158
    28.6924  29.2942  30.5288  31.9305  36.4442  37.0658  37.2643  39.0898
    40.6035  40.7720

          k = 0.3250 0.3250 0.0000 (   940 PWs)   bands (ev):

   -23.8823  -7.2066  -7.1670  -5.8507   9.6032  10.6266  13.9642  14.2863
    14.6306  14.9211  19.0205  20.4838  23.3317  25.0904  26.8488  27.4179
    28.4633  29.6770  30.0199  31.2326  36.1668  36.2156  37.7854  38.8335
    40.6567  40.9522

          k = 0.3000 0.3000 0.0000 (   928 PWs)   bands (ev):

   -23.9104  -7.1167  -7.0707  -5.8743   9.7481  10.6043  13.4556  13.9065
    14.7370  15.0841  19.1566  20.3851  23.3306  25.5260  26.7928  27.7633
    28.8209  28.9063  30.5512  30.7368  35.3838  35.3898  38.5355  38.8311
    39.6619  41.0185

          k = 0.2750 0.2750 0.0000 (   919 PWs)   bands (ev):

   -23.9400  -7.0177  -6.9671  -5.8993   9.7250  10.6975  12.9487  13.6068
    14.8672  15.2638  19.3306  20.3609  23.2666  25.8640  26.4407  28.2360
    28.3148  29.5152  29.8890  31.3418  34.6185  34.7391  38.2316  38.3276
    40.1721  40.8459

          k = 0.2500 0.2500 0.0000 (   927 PWs)   bands (ev):

   -23.9702  -6.9115  -6.8584  -5.9249   9.5788  10.7987  12.4548  13.4649
    15.0222  15.4578  19.5347  20.3962  23.1784  25.8785  26.0444  28.1259
    28.7751  29.2492  30.2349  31.6729  33.9672  34.4084  37.2099  37.9409
    40.5468  41.1727

          k = 0.2250 0.2250 0.0000 (   923 PWs)   bands (ev):

   -24.0004  -6.7999  -6.7468  -5.9505   9.3731  10.7913  11.9829  13.5460
    15.2026  15.6634  19.7608  20.4742  23.1023  25.4760  25.6754  28.4307
    28.6361  29.2574  30.7427  31.6823  33.6090  34.3868  36.2541  37.6752
    40.2048  40.9763

          k = 0.2000 0.2000 0.0000 (   931 PWs)   bands (ev):

   -24.0297  -6.6857  -6.6352  -5.9756   9.1358  10.6641  11.5403  13.8407
    15.4075  15.8765  20.0009  20.5768  23.0692  24.8737  25.3583  28.0544
    29.0083  29.4272  30.7555  31.7594  33.8095  33.9724  36.0466  37.4429
    39.8638  40.6793

          k = 0.1750 0.1750 0.0000 (   935 PWs)   bands (ev):

   -24.0576  -6.5719  -6.5264  -5.9994   8.8810  10.4748  11.1334  14.2808
    15.6354  16.0927  20.2453  20.6861  23.1054  24.2226  25.1068  27.5101
    29.1274  29.7029  30.3340  32.2388  32.9972  34.5027  36.5837  37.2528
    39.5454  40.4119

          k = 0.1500 0.1500 0.0000 (   937 PWs)   bands (ev):

   -24.0832  -6.4619  -6.4235  -6.0213   8.6205  10.2766  10.7678  14.7994
    15.8826  16.3060  20.4828  20.7880  23.2307  23.5794  24.9321  27.0099
    28.5638  29.7403  30.4502  31.8702  33.0306  35.4240  37.1153  37.3438
    39.2604  40.1817

          k = 0.1250 0.1250 0.0000 (   933 PWs)   bands (ev):

   -24.1060  -6.3596  -6.3294  -6.0409   8.3680  10.0975  10.4488  15.3464
    16.1429  16.5097  20.7009  20.8770  22.9705  23.4548  24.8442  26.5616
    27.9191  29.1036  30.7757  31.2115  33.9330  36.4415  37.0459  38.1633
    39.0147  39.9960

          k = 0.1000 0.1000 0.0000 (   937 PWs)   bands (ev):

   -24.1254  -6.2687  -6.2474  -6.0577   8.1381   9.9489  10.1808  15.8802
    16.4067  16.6954  20.8873  20.9576  22.4150  23.7759  24.8499  26.1746
    27.2754  28.4744  29.7258  31.9478  34.9090  37.0683  37.4931  38.8114
    38.9737  39.8716

          k = 0.0750 0.0750 0.0000 (   925 PWs)   bands (ev):

   -24.1410  -6.1931  -6.1802  -6.0712   7.9443   9.8339   9.9679  16.3603
    16.6584  16.8541  21.0330  21.0377  21.9332  24.1834  24.9487  25.8585
    26.6832  27.8806  28.7468  32.6087  35.9206  37.2182  38.4910  38.6522
    39.6591  39.8774

          k = 0.0500 0.0500 0.0000 (   931 PWs)   bands (ev):

   -24.1524  -6.1364  -6.1303  -6.0811   7.7977   9.7525   9.8132  16.7445
    16.8749  16.9763  21.1182  21.1343  21.5508  24.6581  25.1241  25.6234
    26.1915  27.3505  27.8624  33.1315  36.9324  37.5356  38.5381  39.1128
    39.8721  40.3233

          k = 0.0250 0.0250 0.0000 (   931 PWs)   bands (ev):

   -24.1593  -6.1011  -6.0995  -6.0871   7.7065   9.7041   9.7194  16.9937
    17.0255  17.0537  21.1849  21.1929  21.3000  25.1493  25.3255  25.4782
    25.8580  26.9372  27.1250  33.4617  37.8777  38.0281  38.4694  39.2501
    39.6032  39.8209

          k = 0.0000 0.0000 0.0000 (   925 PWs)   bands (ev):

   -24.1617  -6.0891  -6.0891  -6.0891   7.6755   9.6880   9.6880  17.0802
    17.0802  17.0802  21.2119  21.2119  21.2119  25.4290  25.4290  25.4290
    25.7385  26.7633  26.7633  33.5732  38.4465  38.4465  38.4465  39.2667
    39.2667  39.2667

          k = 0.0250 0.0250 0.0250 (   931 PWs)   bands (ev):

   -24.1582  -6.1009  -6.0985  -6.0985   7.7220   9.7236   9.7236  16.9686
    17.0102  17.0102  21.2237  21.2376  21.2376  25.1772  25.1772  25.4530
    25.9190  27.1536  27.1536  33.4033  37.6583  38.1576  38.1576  39.5565
    39.5565  39.9008

          k = 0.0500 0.0500 0.0500 (   934 PWs)   bands (ev):

   -24.1478  -6.1352  -6.1262  -6.1262   7.8594   9.8297   9.8297  16.6613
    16.8052  16.8052  21.2616  21.3135  21.3135  24.7846  24.7846  25.5247
    26.4297  27.9568  27.9568  32.8742  36.6878  37.6936  37.6936  39.6169
    39.6169  40.5053

          k = 0.0750 0.0750 0.0750 (   934 PWs)   bands (ev):

   -24.1307  -6.1901  -6.1710  -6.1710   8.0819  10.0042  10.0042  16.2229
    16.4796  16.4796  21.3285  21.4358  21.4358  24.4872  24.4872  25.6441
    27.2002  28.9205  28.9205  31.9906  35.9590  37.2467  37.2467  38.7121
    38.7121  40.7848

          k = 0.1000 0.1000 0.1000 (   931 PWs)   bands (ev):

   -24.1073  -6.2620  -6.2309  -6.2309   8.3788  10.2438  10.2438  15.7237
    16.0563  16.0563  21.4230  21.5997  21.5997  24.3291  24.3291  25.8111
    28.1532  29.9696  29.9696  30.8634  35.4713  36.8365  36.8365  37.6748
    37.6748  40.5730

          k = 0.1250 0.1250 0.1250 (   937 PWs)   bands (ev):

   -24.0783  -6.3469  -6.3034  -6.3034   8.7338  10.5435  10.5435  15.2244
    15.5637  15.5637  21.5374  21.8003  21.8003  24.3118  24.3118  26.0253
    29.1394  29.7195  31.0468  31.0468  35.1526  36.3758  36.3758  36.7989
    36.7989  40.0353

          k = 0.1500 0.1500 0.1500 (   934 PWs)   bands (ev):

   -24.0443  -6.4406  -6.3858  -6.3858   9.1223  10.8960  10.8960  14.7782
    15.0324  15.0324  21.6563  22.0334  22.0334  24.4244  24.4244  26.2865
    28.3210  30.4394  32.0395  32.0395  34.9648  35.6658  35.6658  36.4046
    36.4046  39.3916

          k = 0.1750 0.1750 0.1750 (   931 PWs)   bands (ev):

   -24.0061  -6.5388  -6.4751  -6.4751   9.5071  11.2894  11.2894  14.4385
    14.4941  14.4941  21.7500  22.2957  22.2957  24.6516  24.6516  26.5943
    27.1570  31.5562  32.6101  32.6101  34.9219  35.2542  35.2542  36.2760
    36.2760  38.7363

          k = 0.2000 0.2000 0.2000 (   934 PWs)   bands (ev):

   -23.9648  -6.6379  -6.5684  -6.5684   9.8370  11.6981  11.6981  13.9897
    13.9897  14.2651  21.7607  22.5847  22.5847  24.9769  24.9769  26.1373
    26.9479  32.3479  32.3479  32.5113  35.0842  35.4260  35.4260  36.5276
    36.5276  38.1642

          k = 0.2250 0.2250 0.2250 (   934 PWs)   bands (ev):

   -23.9213  -6.7346  -6.6630  -6.6630  10.0577  12.0460  12.0460  13.6061
    13.6061  14.3157  21.5897  22.8973  22.8973  25.3825  25.3825  25.3825
    27.3465  31.6206  31.6206  33.1218  35.3913  35.5529  35.5529  37.3965
    37.3965  37.9085

          k = 0.2500 0.2500 0.2500 (   946 PWs)   bands (ev):

   -23.8767  -6.8266  -6.7562  -6.7562  10.1443  12.1280  12.1280  13.5558
    13.5558  14.6144  21.1456  23.2287  23.2287  24.9936  25.8462  25.8462
    27.7891  30.7929  30.7929  33.4247  35.3674  35.5863  35.5863  38.3921
    38.4950  38.4950

          k = 0.2750 0.2750 0.2750 (   943 PWs)   bands (ev):

   -23.8320  -6.9117  -6.8459  -6.8459  10.1214  11.8747  11.8747  13.9128
    13.9128  15.1328  20.4595  23.5690  23.5690  24.9460  26.3323  26.3323
    28.2742  29.9998  29.9998  33.5950  34.9200  35.6187  35.6187  39.3066
    39.3066  39.4495

          k = 0.3000 0.3000 0.3000 (   943 PWs)   bands (ev):

   -23.7885  -6.9889  -6.9302  -6.9302  10.0386  11.5029  11.5029  14.4630
    14.4630  15.8140  19.6525  23.8975  23.8975  25.1230  26.7616  26.7616
    28.7993  29.3590  29.3590  33.7302  34.3201  35.6477  35.6477  39.2387
    39.2387  39.8323

          k = 0.3250 0.3250 0.3250 (   937 PWs)   bands (ev):

   -23.7471  -7.0572  -7.0076  -7.0076   9.9392  11.1251  11.1251  15.0951
    15.0951  16.6034  18.8236  24.1694  24.1694  25.4294  26.9607  26.9607
    29.0860  29.0860  29.3612  33.6256  33.9247  35.6148  35.6148  38.7354
    38.7354  38.7543

          k = 0.3500 0.3500 0.3500 (   937 PWs)   bands (ev):

   -23.7089  -7.1162  -7.0767  -7.0767   9.8504  10.7765  10.7765  15.7739
    15.7739  17.4540  18.0326  24.2884  24.2884  25.8113  26.8708  26.8708
    29.3229  29.3229  29.9549  32.9917  34.0659  35.4116  35.4116  37.5120
    38.3744  38.3744

          k = 0.3750 0.3750 0.3750 (   943 PWs)   bands (ev):

   -23.6748  -7.1659  -7.1366  -7.1366   9.7856  10.4707  10.4707  16.4842
    16.4842  17.2979  18.3432  24.1218  24.1218  26.2371  26.8116  26.8116
    29.8615  29.8615  30.5722  32.3524  34.2003  34.9760  34.9760  36.3612
    38.3494  38.3494

          k = 0.4000 0.4000 0.4000 (   946 PWs)   bands (ev):

   -23.6458  -7.2062  -7.1864  -7.1864   9.7482  10.2147  10.2147  16.6652
    17.2159  17.2159  19.2091  23.6539  23.6539  26.6831  26.9669  26.9669
    30.5007  30.5007  31.1994  31.7396  34.1279  34.3926  34.3926  35.5339
    38.6119  38.6119

          k = 0.4250 0.4250 0.4250 (   940 PWs)   bands (ev):

   -23.6223  -7.2372  -7.2257  -7.2257   9.7350  10.0123  10.0123  16.1436
    17.9579  17.9579  20.0135  23.0100  23.0100  27.1237  27.2610  27.2610
    31.1381  31.1381  31.1769  31.8118  33.5605  33.7930  33.7930  35.3469
    38.8881  38.8881

          k = 0.4500 0.4500 0.4500 (   940 PWs)   bands (ev):

   -23.6052  -7.2593  -7.2540  -7.2540   9.7373   9.8662   9.8662  15.7528
    18.6895  18.6895  20.6888  22.3069  22.3069  27.5207  27.5803  27.5803
    30.7035  31.6849  31.6849  32.3637  32.8438  33.2902  33.2902  35.4797
    38.4837  38.4837

          k = 0.4750 0.4750 0.4750 (   940 PWs)   bands (ev):

   -23.5947  -7.2724  -7.2711  -7.2711   9.7448   9.7780   9.7780  15.5100
    19.3492  19.3492  21.1506  21.6521  21.6521  27.8132  27.8288  27.8288
    30.3795  32.0241  32.0241  32.3098  32.7736  32.9965  32.9965  35.6317
    38.0282  38.0289

          k = 0.5000 0.5000 0.5000 (   912 PWs)   bands (ev):

   -23.5912  -7.2767  -7.2767  -7.2767   9.7485   9.7485   9.7485  15.4275
    19.6848  19.6848  21.3167  21.3167  21.3167  27.9241  27.9241  27.9241
    30.2640  32.1113  32.1113  32.1113  32.9309  32.9309  32.9309  35.6942
    37.8534  37.8534

     Writing all to output data dir ./work/POSCAR.save/

     init_run     :      0.17s CPU      0.19s WALL (       1 calls)
     electrons    :      2.64s CPU      2.93s WALL (       1 calls)

     Called by init_run:
     wfcinit      :      0.00s CPU      0.01s WALL (       1 calls)
     potinit      :      0.07s CPU      0.08s WALL (       1 calls)
     hinit0       :      0.08s CPU      0.08s WALL (       1 calls)

     Called by electrons:
     c_bands      :      2.64s CPU      2.92s WALL (       1 calls)
     v_of_rho     :      0.00s CPU      0.00s WALL (       1 calls)
     newd         :      0.00s CPU      0.00s WALL (       1 calls)
     PAW_pot      :      0.04s CPU      0.04s WALL (       1 calls)

     Called by c_bands:
     init_us_2    :      0.00s CPU      0.00s WALL (      91 calls)
     init_us_2:cp :      0.00s CPU      0.00s WALL (      91 calls)
     cegterg      :      2.46s CPU      2.53s WALL (     115 calls)

     Called by *egterg:
     cdiaghg      :      0.92s CPU      0.94s WALL (    1779 calls)
     h_psi        :      1.26s CPU      1.30s WALL (    1894 calls)
     s_psi        :      0.02s CPU      0.02s WALL (    1894 calls)
     g_psi        :      0.01s CPU      0.01s WALL (    1688 calls)

     Called by h_psi:
     h_psi:calbec :      0.06s CPU      0.06s WALL (    1894 calls)
     vloc_psi     :      1.17s CPU      1.21s WALL (    1894 calls)
     add_vuspsi   :      0.02s CPU      0.02s WALL (    1894 calls)

     General routines
     calbec       :      0.06s CPU      0.06s WALL (    1894 calls)
     fft          :      0.05s CPU      0.06s WALL (      13 calls)
     ffts         :      0.03s CPU      0.03s WALL (       1 calls)
     fftw         :      1.07s CPU      1.10s WALL (   51468 calls)
     interpolate  :      0.03s CPU      0.03s WALL (       1 calls)
     davcio       :      0.00s CPU      0.15s WALL (     182 calls)

     Parallel routines

     PWSCF        :      3.12s CPU      4.14s WALL


   This run was terminated on:  22:40: 9  15May2024            

=------------------------------------------------------------------------------=
   JOB DONE.
=------------------------------------------------------------------------------=
