
     Program PWSCF v.7.1 starts on 15May2024 at 22:39:53 

     This program is part of the open-source Quantum ESPRESSO suite
     for quantum simulation of materials; please cite
         "P. Giannozzi et al., J. Phys.:Condens. Matter 21 395502 (2009);
         "P. Giannozzi et al., J. Phys.:Condens. Matter 29 465901 (2017);
         "P. Giannozzi et al., J. Chem. Phys. 152 154105 (2020);
          URL http://www.quantum-espresso.org", 
     in publications or presentations arising from this work. More details at
     http://www.quantum-espresso.org/quote

     Parallel version (MPI & OpenMP), running on      10 processor cores
     Number of MPI processes:                10
     Threads/MPI process:                     1

     MPI processes distributed on     1 nodes
     14558 MiB available memory on the printing compute node when the environment starts

     Waiting for input...
     Reading input from standard input

     Current dimensions of program PWSCF are:
     Max number of different atomic species (ntypx) = 10
     Max number of k-points (npk) =  40000
     Max angular momentum in pseudopotentials (lmaxx) =  4

     Atomic positions and unit cell read from directory:
     ./work/POSCAR.save/

     file Ce.pbe-spdn-kjpaw_psl.1.0.0.UPF: wavefunction(s)  5D renormalized
     Message from routine setup:
     using ibrav=0 with symmetry is DISCOURAGED, use correct ibrav instead

     R & G space division:  proc/nbgrp/npool/nimage =      10
     Subspace diagonalization in iterative solution of the eigenvalue problem:
     a serial algorithm will be used


     Parallelization info
     --------------------
     sticks:   dense  smooth     PW     G-vecs:    dense   smooth      PW
     Min          55      44     14                  976      713     134
     Max          56      45     15                  978      716     137
     Sum         553     441    145                 9771     7153    1357

     Using Slab Decomposition



     bravais-lattice index     =            0
     lattice parameter (alat)  =       6.2177  a.u.
     unit-cell volume          =     240.3783 (a.u.)^3
     number of atoms/cell      =            1
     number of atomic types    =            1
     number of electrons       =        11.00
     number of Kohn-Sham states=           26
     kinetic-energy cutoff     =      37.0000  Ry
     charge density cutoff     =     179.0000  Ry
     Exchange-correlation= SLA  PW   PBX  PBC
                           (   1   4   3   4   0   0   0)

     celldm(1)=   6.217728  celldm(2)=   0.000000  celldm(3)=   0.000000
     celldm(4)=   0.000000  celldm(5)=   0.000000  celldm(6)=   0.000000

     crystal axes: (cart. coord. in units of alat)
               a(1) = (   1.000000   0.000000   0.000000 )  
               a(2) = (   0.000000   1.000000   0.000000 )  
               a(3) = (   0.000000   0.000000   1.000000 )  

     reciprocal axes: (cart. coord. in units 2 pi/alat)
               b(1) = (  1.000000  0.000000  0.000000 )  
               b(2) = (  0.000000  1.000000  0.000000 )  
               b(3) = (  0.000000  0.000000  1.000000 )  


     PseudoPot. # 1 for Ce read from file:
     ./../../../../pseudo/psl100_PBE/Ce.pbe-spdn-kjpaw_psl.1.0.0.UPF
     MD5 check sum: 1a25380276e46fcecd5a173acdad072c
     Pseudo is Projector augmented-wave + core cor, Zval = 11.0
     Generated using 'atomic' code by A. Dal Corso  v.7.2
     Shape of augmentation charge: PSQ
     Using radial grid of 1255 points,  6 beta functions with: 
                l(1) =   0
                l(2) =   0
                l(3) =   1
                l(4) =   1
                l(5) =   2
                l(6) =   2
     Q(r) pseudized with 0 coefficients 


     atomic species   valence    mass     pseudopotential
        Ce            11.00   140.11600     Ce( 1.00)

     48 Sym. Ops., with inversion, found



   Cartesian axes

     site n.     atom                  positions (alat units)
         1           Ce  tau(   1) = (   0.0000000   0.0000000   0.0000000  )

     number of k points=    91  Methfessel-Paxton smearing, width (Ry)=  0.0200
                       cart. coord. in units 2pi/alat
        k(    1) = (   0.0000000   0.5000000   0.5000000), wk =   0.0219780
        k(    2) = (   0.0500000   0.5000000   0.5000000), wk =   0.0219780
        k(    3) = (   0.1000000   0.5000000   0.5000000), wk =   0.0219780
        k(    4) = (   0.1500000   0.5000000   0.5000000), wk =   0.0219780
        k(    5) = (   0.2000000   0.5000000   0.5000000), wk =   0.0219780
        k(    6) = (   0.2500000   0.5000000   0.5000000), wk =   0.0219780
        k(    7) = (   0.3000000   0.5000000   0.5000000), wk =   0.0219780
        k(    8) = (   0.3500000   0.5000000   0.5000000), wk =   0.0219780
        k(    9) = (   0.4000000   0.5000000   0.5000000), wk =   0.0219780
        k(   10) = (   0.4500000   0.5000000   0.5000000), wk =   0.0219780
        k(   11) = (   0.5000000   0.5000000   0.5000000), wk =   0.0219780
        k(   12) = (   0.4750000   0.4750000   0.4750000), wk =   0.0219780
        k(   13) = (   0.4500000   0.4500000   0.4500000), wk =   0.0219780
        k(   14) = (   0.4250000   0.4250000   0.4250000), wk =   0.0219780
        k(   15) = (   0.4000000   0.4000000   0.4000000), wk =   0.0219780
        k(   16) = (   0.3750000   0.3750000   0.3750000), wk =   0.0219780
        k(   17) = (   0.3500000   0.3500000   0.3500000), wk =   0.0219780
        k(   18) = (   0.3250000   0.3250000   0.3250000), wk =   0.0219780
        k(   19) = (   0.3000000   0.3000000   0.3000000), wk =   0.0219780
        k(   20) = (   0.2750000   0.2750000   0.2750000), wk =   0.0219780
        k(   21) = (   0.2500000   0.2500000   0.2500000), wk =   0.0219780
        k(   22) = (   0.2250000   0.2250000   0.2250000), wk =   0.0219780
        k(   23) = (   0.2000000   0.2000000   0.2000000), wk =   0.0219780
        k(   24) = (   0.1750000   0.1750000   0.1750000), wk =   0.0219780
        k(   25) = (   0.1500000   0.1500000   0.1500000), wk =   0.0219780
        k(   26) = (   0.1250000   0.1250000   0.1250000), wk =   0.0219780
        k(   27) = (   0.1000000   0.1000000   0.1000000), wk =   0.0219780
        k(   28) = (   0.0750000   0.0750000   0.0750000), wk =   0.0219780
        k(   29) = (   0.0500000   0.0500000   0.0500000), wk =   0.0219780
        k(   30) = (   0.0250000   0.0250000   0.0250000), wk =   0.0219780
        k(   31) = (   0.0000000   0.0000000   0.0000000), wk =   0.0219780
        k(   32) = (   0.0500000   0.0000000   0.0000000), wk =   0.0219780
        k(   33) = (   0.1000000   0.0000000   0.0000000), wk =   0.0219780
        k(   34) = (   0.1500000   0.0000000   0.0000000), wk =   0.0219780
        k(   35) = (   0.2000000   0.0000000   0.0000000), wk =   0.0219780
        k(   36) = (   0.2500000   0.0000000   0.0000000), wk =   0.0219780
        k(   37) = (   0.3000000   0.0000000   0.0000000), wk =   0.0219780
        k(   38) = (   0.3500000   0.0000000   0.0000000), wk =   0.0219780
        k(   39) = (   0.4000000   0.0000000   0.0000000), wk =   0.0219780
        k(   40) = (   0.4500000   0.0000000   0.0000000), wk =   0.0219780
        k(   41) = (   0.5000000   0.0000000   0.0000000), wk =   0.0219780
        k(   42) = (   0.5000000   0.0500000   0.0000000), wk =   0.0219780
        k(   43) = (   0.5000000   0.1000000   0.0000000), wk =   0.0219780
        k(   44) = (   0.5000000   0.1500000   0.0000000), wk =   0.0219780
        k(   45) = (   0.5000000   0.2000000   0.0000000), wk =   0.0219780
        k(   46) = (   0.5000000   0.2500000   0.0000000), wk =   0.0219780
        k(   47) = (   0.5000000   0.3000000   0.0000000), wk =   0.0219780
        k(   48) = (   0.5000000   0.3500000   0.0000000), wk =   0.0219780
        k(   49) = (   0.5000000   0.4000000   0.0000000), wk =   0.0219780
        k(   50) = (   0.5000000   0.4500000   0.0000000), wk =   0.0219780
        k(   51) = (   0.5000000   0.5000000   0.0000000), wk =   0.0219780
        k(   52) = (   0.4750000   0.4750000   0.0000000), wk =   0.0219780
        k(   53) = (   0.4500000   0.4500000   0.0000000), wk =   0.0219780
        k(   54) = (   0.4250000   0.4250000   0.0000000), wk =   0.0219780
        k(   55) = (   0.4000000   0.4000000   0.0000000), wk =   0.0219780
        k(   56) = (   0.3750000   0.3750000   0.0000000), wk =   0.0219780
        k(   57) = (   0.3500000   0.3500000   0.0000000), wk =   0.0219780
        k(   58) = (   0.3250000   0.3250000   0.0000000), wk =   0.0219780
        k(   59) = (   0.3000000   0.3000000   0.0000000), wk =   0.0219780
        k(   60) = (   0.2750000   0.2750000   0.0000000), wk =   0.0219780
        k(   61) = (   0.2500000   0.2500000   0.0000000), wk =   0.0219780
        k(   62) = (   0.2250000   0.2250000   0.0000000), wk =   0.0219780
        k(   63) = (   0.2000000   0.2000000   0.0000000), wk =   0.0219780
        k(   64) = (   0.1750000   0.1750000   0.0000000), wk =   0.0219780
        k(   65) = (   0.1500000   0.1500000   0.0000000), wk =   0.0219780
        k(   66) = (   0.1250000   0.1250000   0.0000000), wk =   0.0219780
        k(   67) = (   0.1000000   0.1000000   0.0000000), wk =   0.0219780
        k(   68) = (   0.0750000   0.0750000   0.0000000), wk =   0.0219780
        k(   69) = (   0.0500000   0.0500000   0.0000000), wk =   0.0219780
        k(   70) = (   0.0250000   0.0250000   0.0000000), wk =   0.0219780
        k(   71) = (   0.0000000   0.0000000   0.0000000), wk =   0.0219780
        k(   72) = (   0.0250000   0.0250000   0.0250000), wk =   0.0219780
        k(   73) = (   0.0500000   0.0500000   0.0500000), wk =   0.0219780
        k(   74) = (   0.0750000   0.0750000   0.0750000), wk =   0.0219780
        k(   75) = (   0.1000000   0.1000000   0.1000000), wk =   0.0219780
        k(   76) = (   0.1250000   0.1250000   0.1250000), wk =   0.0219780
        k(   77) = (   0.1500000   0.1500000   0.1500000), wk =   0.0219780
        k(   78) = (   0.1750000   0.1750000   0.1750000), wk =   0.0219780
        k(   79) = (   0.2000000   0.2000000   0.2000000), wk =   0.0219780
        k(   80) = (   0.2250000   0.2250000   0.2250000), wk =   0.0219780
        k(   81) = (   0.2500000   0.2500000   0.2500000), wk =   0.0219780
        k(   82) = (   0.2750000   0.2750000   0.2750000), wk =   0.0219780
        k(   83) = (   0.3000000   0.3000000   0.3000000), wk =   0.0219780
        k(   84) = (   0.3250000   0.3250000   0.3250000), wk =   0.0219780
        k(   85) = (   0.3500000   0.3500000   0.3500000), wk =   0.0219780
        k(   86) = (   0.3750000   0.3750000   0.3750000), wk =   0.0219780
        k(   87) = (   0.4000000   0.4000000   0.4000000), wk =   0.0219780
        k(   88) = (   0.4250000   0.4250000   0.4250000), wk =   0.0219780
        k(   89) = (   0.4500000   0.4500000   0.4500000), wk =   0.0219780
        k(   90) = (   0.4750000   0.4750000   0.4750000), wk =   0.0219780
        k(   91) = (   0.5000000   0.5000000   0.5000000), wk =   0.0219780

     Dense  grid:     9771 G-vectors     FFT dimensions: (  27,  27,  27)

     Smooth grid:     7153 G-vectors     FFT dimensions: (  25,  25,  25)

     Estimated max dynamical RAM per process >       4.21 MB

     Estimated total dynamical RAM >      42.07 MB

     The potential is recalculated from file :
     ./work/POSCAR.save/charge-density

     Starting wfcs are   13 randomized atomic wfcs +   13 random wfcs
     Checking if some PAW data can be deallocated... 

     Band Structure Calculation
     Davidson diagonalization with overlap

     ethr =  6.64E-07,  avg # of iterations = 18.1

     total cpu time spent up to now is        3.3 secs

     End of band structure calculation

          k = 0.0000 0.5000 0.5000 (   888 PWs)   bands (ev):

   -23.4944  -7.2839  -7.2839  -5.4403   8.6168  11.5038  14.6775  14.6775
    16.4698  16.4698  19.8358  22.5977  23.6566  23.6903  23.6903  25.1001
    29.9196  32.2026  32.2026  36.3514  36.6224  36.6893  37.3253  37.3253
    42.1693  42.1693

          k = 0.0500 0.5000 0.5000 (   900 PWs)   bands (ev):

   -23.4897  -7.2780  -7.2780  -5.4851   8.6409  11.6330  14.2757  14.2757
    16.9076  16.9076  19.8429  21.8999  23.7473  23.7473  24.3509  25.1020
    30.0075  32.2200  32.2200  36.2355  36.4964  36.7175  37.0647  37.0647
    42.2883  42.4995

          k = 0.1000 0.5000 0.5000 (   916 PWs)   bands (ev):

   -23.4761  -7.2610  -7.2610  -5.6129   8.7125  12.0137  13.5382  13.5382
    17.7455  17.7455  19.8639  20.8789  23.9234  23.9234  25.1039  25.3430
    30.2878  32.2709  32.2709  35.9137  36.1602  36.4395  36.4395  36.8013
    41.3030  41.7342

          k = 0.1500 0.5000 0.5000 (   920 PWs)   bands (ev):

   -23.4547  -7.2342  -7.2342  -5.8061   8.8289  12.6272  12.7807  12.7807
    18.6458  18.6458  19.8723  19.8970  24.2334  24.2334  25.0938  26.2474
    30.8037  32.3527  32.3527  35.4465  35.6799  35.6799  35.6999  36.9387
    39.2459  41.0672

          k = 0.2000 0.5000 0.5000 (   928 PWs)   bands (ev):

   -23.4275  -7.2001  -7.2001  -6.0406   8.9854  12.0775  12.0775  13.4467
    18.9236  19.4994  19.4994  19.9393  24.6979  24.6979  25.0476  26.9754
    31.5897  32.4598  32.4598  34.8990  34.9178  34.9178  35.1960  37.1257
    37.2667  40.4124

          k = 0.2500 0.5000 0.5000 (   920 PWs)   bands (ev):

   -23.3971  -7.1618  -7.1618  -6.2898   9.1740  11.4556  11.4556  14.4416
    18.0539  19.9871  20.2431  20.2431  24.9250  25.3285  25.3285  27.5116
    32.5827  32.5827  32.6181  34.2242  34.2242  34.3260  34.7054  35.4454
    37.3555  39.8480

          k = 0.3000 0.5000 0.5000 (   920 PWs)   bands (ev):

   -23.3663  -7.1231  -7.1231  -6.5293   9.3826  10.9300  10.9300  15.5788
    17.2823  20.0358  20.8421  20.8421  24.6636  26.1033  26.1033  27.8934
    32.7029  32.7029  33.6544  33.6544  33.7067  33.7843  33.9264  34.2657
    37.6167  39.4543

          k = 0.3500 0.5000 0.5000 (   928 PWs)   bands (ev):

   -23.3383  -7.0877  -7.0877  -6.7378   9.5930  10.5109  10.5109  16.6311
    16.8218  20.0806  21.2908  21.2908  24.1872  26.9477  26.9477  28.1641
    32.5515  32.7639  32.7639  33.2949  33.2949  33.3262  33.9021  34.9102
    37.8897  39.3675

          k = 0.4000 0.5000 0.5000 (   924 PWs)   bands (ev):

   -23.3159  -7.0593  -7.0593  -6.8987   9.7795  10.2060  10.2060  16.1282
    18.1233  20.1168  21.6003  21.6003  23.4463  27.7322  27.7322  28.3495
    31.6711  32.6876  32.6876  32.9374  33.2468  33.2468  33.6316  35.7395
    38.1433  39.8084

          k = 0.4500 0.5000 0.5000 (   920 PWs)   bands (ev):

   -23.3014  -7.0409  -7.0409  -7.0000   9.9109  10.0209  10.0209  15.8063
    19.3884  20.1403  21.7821  21.7821  22.5013  28.2933  28.2933  28.4596
    31.1760  32.6143  32.6143  32.6866  33.3472  33.3472  33.4649  36.1334
    38.3309  38.8039

          k = 0.5000 0.5000 0.5000 (   912 PWs)   bands (ev):

   -23.2964  -7.0345  -7.0345  -7.0345   9.9588   9.9588   9.9588  15.6949
    20.1485  20.1485  21.8422  21.8422  21.8422  28.4963  28.4963  28.4963
    31.0205  32.5994  32.5994  32.5994  33.4087  33.4087  33.4087  36.2309
    38.4015  38.4015

          k = 0.4750 0.4750 0.4750 (   913 PWs)   bands (ev):

   -23.3002  -7.0300  -7.0286  -7.0286   9.9554   9.9889   9.9889  15.7789
    19.8096  19.8096  21.6746  22.1810  22.1810  28.3756  28.3946  28.3946
    31.1328  32.5115  32.5115  32.8120  33.2495  33.4800  33.4800  36.1681
    38.5793  38.5793

          k = 0.4500 0.4500 0.4500 (   925 PWs)   bands (ev):

   -23.3114  -7.0164  -7.0108  -7.0108   9.9488  10.0790  10.0790  16.0261
    19.1385  19.1385  21.2078  22.8466  22.8466  28.0636  28.1305  28.1305
    31.4452  32.1644  32.1644  32.8338  33.3790  33.7917  33.7917  36.0158
    39.0434  39.0434

          k = 0.4250 0.4250 0.4250 (   925 PWs)   bands (ev):

   -23.3299  -6.9934  -6.9813  -6.9813   9.9481  10.2282  10.2282  16.4240
    18.3920  18.3920  20.5234  23.5630  23.5630  27.6486  27.7936  27.7936
    31.6068  31.6068  31.9007  32.2743  34.1291  34.3173  34.3173  35.8898
    39.4636  39.4636

          k = 0.4000 0.4000 0.4000 (   925 PWs)   bands (ev):

   -23.3551  -6.9610  -6.9405  -6.9405   9.9643  10.4348  10.4348  16.9552
    17.6338  17.6338  19.7059  24.2181  24.2181  27.1939  27.4855  27.4855
    30.9586  30.9586  31.6532  32.4448  34.6939  34.9393  34.9393  36.1201
    39.1899  39.1899

          k = 0.3750 0.3750 0.3750 (   931 PWs)   bands (ev):

   -23.3864  -6.9190  -6.8885  -6.8885  10.0059  10.6965  10.6965  16.8850
    16.8850  17.6000  18.8234  24.6861  24.6861  26.7363  27.3279  27.3279
    30.3097  30.3097  31.0172  33.0406  34.7445  35.5421  35.5421  37.0070
    38.9237  38.9237

          k = 0.3500 0.3500 0.3500 (   931 PWs)   bands (ev):

   -23.4230  -6.8672  -6.8260  -6.8260  10.0768  11.0091  11.0091  16.1572
    16.1572  17.9139  18.3506  24.8337  24.8337  26.3002  27.3983  27.3983
    29.7691  29.7691  30.3913  33.6622  34.6089  35.9892  35.9892  38.1973
    38.9519  38.9519

          k = 0.3250 0.3250 0.3250 (   931 PWs)   bands (ev):

   -23.4640  -6.8056  -6.7539  -6.7539  10.1738  11.3660  11.3660  15.4606
    15.4606  17.0449  19.1562  24.6887  24.6887  25.9080  27.4798  27.4798
    29.5586  29.5586  29.7894  34.2261  34.5281  36.1936  36.1936  39.3256
    39.3256  39.4662

          k = 0.3000 0.3000 0.3000 (   922 PWs)   bands (ev):

   -23.5085  -6.7342  -6.6730  -6.6730  10.2839  11.7537  11.7537  14.8103
    14.8103  16.2337  20.0048  24.3954  24.3954  25.5903  27.2426  27.2426
    29.2196  29.8850  29.8850  34.2426  35.0074  36.2227  36.2227  39.8431
    39.8431  40.5424

          k = 0.2750 0.2750 0.2750 (   916 PWs)   bands (ev):

   -23.5553  -6.6534  -6.5847  -6.5847  10.3802  12.1381  12.1381  14.2405
    14.2405  15.5290  20.8355  24.0501  24.0501  25.3993  26.7845  26.7845
    28.6872  30.5664  30.5664  34.1184  35.5943  36.1898  36.1898  39.9159
    39.9159  40.1302

          k = 0.2500 0.2500 0.2500 (   925 PWs)   bands (ev):

   -23.6032  -6.5643  -6.4907  -6.4907  10.4191  12.4082  12.4082  13.8611
    13.8611  14.9861  21.5496  23.6964  23.6964  25.4298  26.2805  26.2805
    28.1955  31.3866  31.3866  33.9606  36.0221  36.1541  36.1541  39.0658
    39.0979  39.0979

          k = 0.2250 0.2250 0.2250 (   910 PWs)   bands (ev):

   -23.6511  -6.4679  -6.3928  -6.3928  10.3485  12.3361  12.3361  13.8977
    13.8977  14.6647  22.0198  23.3537  23.3537  25.8043  25.8044  25.8044
    27.7468  32.2331  32.2331  33.6780  36.0007  36.1166  36.1166  37.9895
    37.9895  38.5919

          k = 0.2000 0.2000 0.2000 (   910 PWs)   bands (ev):

   -23.6978  -6.3663  -6.2935  -6.2935  10.1391  11.9808  11.9808  14.2866
    14.2866  14.5982  22.2058  23.0312  23.0312  25.3894  25.3894  26.5566
    27.3426  32.9668  32.9668  33.0896  35.6448  35.9848  35.9848  37.1195
    37.1195  38.8599

          k = 0.1750 0.1750 0.1750 (   916 PWs)   bands (ev):

   -23.7422  -6.2622  -6.1954  -6.1954   9.8128  11.5596  11.5596  14.7652
    14.8033  14.8033  22.1993  22.7335  22.7335  25.0564  25.0564  26.9840
    27.5845  32.1385  33.1991  33.1991  35.4590  35.8380  35.8380  36.8720
    36.8720  39.4382

          k = 0.1500 0.1500 0.1500 (   910 PWs)   bands (ev):

   -23.7831  -6.1588  -6.1012  -6.1012   9.4252  11.1537  11.1537  15.1070
    15.3560  15.3560  22.1037  22.4635  22.4635  24.8226  24.8226  26.6720
    28.7630  31.0104  32.5795  32.5795  35.4969  36.2846  36.2846  37.0143
    37.0143  40.0971

          k = 0.1250 0.1250 0.1250 (   916 PWs)   bands (ev):

   -23.8196  -6.0600  -6.0142  -6.0142   9.0307  10.7897  10.7897  15.5611
    15.9024  15.9024  21.9800  22.2235  22.2235  24.7047  24.7047  26.4071
    29.6714  30.2003  31.5556  31.5556  35.6880  36.9654  36.9654  37.4687
    37.4687  40.7402

          k = 0.1000 0.1000 0.1000 (   916 PWs)   bands (ev):

   -23.8507  -5.9704  -5.9376  -5.9376   8.6684  10.4800  10.4800  16.0718
    16.4100  16.4100  21.8587  22.0169  22.0169  24.7177  24.7177  26.1899
    28.6952  30.4561  30.4561  31.3325  36.0147  37.4148  37.4148  38.3780
    38.3780  41.2640

          k = 0.0750 0.0750 0.0750 (   910 PWs)   bands (ev):

   -23.8757  -5.8943  -5.8742  -5.8742   8.3647  10.2323  10.2323  16.5843
    16.8472  16.8472  21.7557  21.8480  21.8480  24.8728  24.8728  26.0206
    27.7302  29.3890  29.3890  32.4686  36.5152  37.8326  37.8326  39.4209
    39.4209  41.4381

          k = 0.0500 0.0500 0.0500 (   916 PWs)   bands (ev):

   -23.8941  -5.8363  -5.8268  -5.8268   8.1368  10.0518  10.0518  17.0358
    17.1841  17.1841  21.6790  21.7219  21.7219  25.1680  25.1680  25.8995
    26.9507  28.4118  28.4118  33.3568  37.2611  38.2875  38.2875  40.2826
    40.2826  41.1334

          k = 0.0250 0.0250 0.0250 (   916 PWs)   bands (ev):

   -23.9053  -5.7999  -5.7974  -5.7974   7.9958   9.9420   9.9420  17.3535
    17.3967  17.3967  21.6326  21.6437  21.6437  25.5570  25.5570  25.8268
    26.4348  27.6024  27.6024  33.8882  38.2502  38.7601  38.7601  40.1638
    40.1638  40.5157

          k = 0.0000 0.0000 0.0000 (   925 PWs)   bands (ev):

   -23.9090  -5.7875  -5.7875  -5.7875   7.9482   9.9051   9.9051  17.4692
    17.4692  17.4692  21.6171  21.6171  21.6171  25.8025  25.8025  25.8025
    26.2527  27.2150  27.2150  34.0587  39.0566  39.0566  39.0566  39.8659
    39.8659  39.8659

          k = 0.0500 0.0000 0.0000 (   916 PWs)   bands (ev):

   -23.9040  -5.8386  -5.7832  -5.7832   8.0105   9.9221   9.9869  17.2976
    17.2976  17.4788  21.3603  21.7906  21.7906  25.1339  25.9049  25.9049
    26.4599  27.3678  27.9593  33.8476  38.2100  38.2100  39.3496  39.4041
    40.7238  40.7238

          k = 0.1000 0.0000 0.0000 (   916 PWs)   bands (ev):

   -23.8895  -5.9842  -5.7708  -5.7708   8.1822   9.9718  10.2346  16.8678
    16.8678  17.5069  20.7510  22.2153  22.2153  24.1187  26.2203  26.2203
    26.7633  27.9817  29.2020  33.3280  37.1176  37.1176  38.2890  39.4310
    40.1147  41.7637

          k = 0.1500 0.0000 0.0000 (   912 PWs)   bands (ev):

   -23.8668  -6.2029  -5.7513  -5.7513   8.4274  10.0516  10.6463  16.3241
    16.3241  17.5511  20.0331  22.7246  22.7246  23.1346  26.7622  26.7622
    26.9446  29.0244  30.5664  32.6819  36.0909  36.0909  36.5999  38.0975
    41.1709  42.4411

          k = 0.2000 0.0000 0.0000 (   912 PWs)   bands (ev):

   -23.8379  -6.4661  -5.7267  -5.7267   8.7119  10.1562  11.1928  15.7643
    15.7643  17.6081  19.3644  22.2302  23.2113  23.2113  27.0705  27.5209
    27.5209  30.2460  32.0054  32.0230  34.6852  35.1727  35.1727  37.1339
    42.4054  42.7436

          k = 0.2500 0.0000 0.0000 (   908 PWs)   bands (ev):

   -23.8055  -6.7437  -5.6991  -5.6991   9.0163  10.2781  11.7987  15.2422
    15.2422  17.6728  18.8624  21.4244  23.6383  23.6383  27.1244  28.4383
    28.4383  31.4102  31.4374  32.8763  33.5016  34.4105  34.4105  36.4402
    42.8766  42.8766

          k = 0.3000 0.0000 0.0000 (   904 PWs)   bands (ev):

   -23.7728  -7.0085  -5.6713  -5.6713   9.3304  10.4072  12.3415  14.7879
    14.7879  17.7393  18.6523  20.7321  24.0047  24.0047  26.9739  29.3901
    29.3901  30.8761  31.2107  32.4844  33.8980  33.8980  35.0403  36.2335
    42.8894  42.8894

          k = 0.3500 0.0000 0.0000 (   912 PWs)   bands (ev):

   -23.7430  -7.2377  -5.6461  -5.6461   9.6418  10.5307  12.6905  14.4198
    14.4198  17.8009  18.8542  20.1687  24.3133  24.3133  26.3581  30.1505
    30.1505  30.2565  30.4414  32.7404  33.8294  33.8294  36.6025  36.8671
    42.4928  42.4928

          k = 0.4000 0.0000 0.0000 (   892 PWs)   bands (ev):

   -23.7191  -7.4138  -5.6258  -5.6258   9.9255  10.6342  12.8059  14.1497
    14.1497  17.8510  19.4912  19.7502  24.5564  24.5564  25.2206  29.9226
    30.1208  30.4969  30.4969  32.5336  34.3925  34.3925  38.1571  38.1901
    41.1444  41.1444

          k = 0.4500 0.0000 0.0000 (   900 PWs)   bands (ev):

   -23.7036  -7.5244  -5.6128  -5.6128  10.1364  10.7035  12.7819  13.9848
    13.9848  17.8838  19.4915  20.4100  23.9249  24.7159  24.7159  29.9137
    29.9241  30.5420  30.5420  32.2516  35.3723  35.3723  39.6402  39.6548
    39.6548  39.8292

          k = 0.5000 0.0000 0.0000 (   884 PWs)   bands (ev):

   -23.6983  -7.5620  -5.6083  -5.6083  10.2169  10.7280  12.7534  13.9294
    13.9294  17.8952  19.4039  21.0331  23.1694  24.7720  24.7720  29.8579
    29.9463  30.5284  30.5284  32.1285  36.0066  36.0066  38.8653  38.8653
    40.6992  41.3860

          k = 0.5000 0.0500 0.0000 (   896 PWs)   bands (ev):

   -23.6934  -7.5555  -5.6559  -5.6043  10.2905  10.8002  12.4511  13.9450
    14.1616  17.7610  19.5606  21.0093  23.1885  24.5820  24.9949  29.0823
    29.9308  30.2510  31.3393  32.7814  35.8448  36.0179  38.4430  38.9154
    40.0507  41.4161

          k = 0.5000 0.1000 0.0000 (   896 PWs)   bands (ev):

   -23.6794  -7.5366  -5.7915  -5.5926  10.4488  11.0699  11.8617  13.9909
    14.5584  17.4073  20.0068  20.9285  23.2443  24.1389  25.6154  28.1008
    28.9820  31.0454  32.4204  33.8623  35.4240  36.0511  37.6955  38.5183
    39.0696  41.4786

          k = 0.5000 0.1500 0.0000 (   906 PWs)   bands (ev):

   -23.6574  -7.5069  -5.9961  -5.5744  10.6045  11.2189  11.5973  14.0644
    14.9314  16.9328  20.6743  20.7660  23.3294  23.6576  26.5349  27.1712
    28.0937  32.1217  33.4936  34.7440  34.8687  36.1036  36.6892  37.2304
    39.3396  41.5743

          k = 0.5000 0.2000 0.0000 (   908 PWs)   bands (ev):

   -23.6294  -7.4689  -6.2434  -5.5512  10.5961  10.7571  12.3414  14.1603
    15.2626  16.4232  20.5018  21.4588  23.2827  23.4240  26.3188  27.3846
    27.6683  33.1521  34.3760  34.5004  34.7903  34.8976  36.1714  37.7124
    39.7415  41.6804

          k = 0.5000 0.2500 0.0000 (   900 PWs)   bands (ev):

   -23.5981  -7.4263  -6.5055  -5.5254  10.0288  10.9181  13.2342  14.2718
    15.5627  15.9353  20.1586  22.2257  23.0656  23.4755  25.5590  26.9981
    28.9591  32.3626  33.8104  34.2559  35.1456  35.3856  36.2486  38.8743
    40.2827  41.6989

          k = 0.5000 0.3000 0.0000 (   908 PWs)   bands (ev):

   -23.5664  -7.3831  -6.7566  -5.4994   9.5396  11.0843  14.2011  14.3892
    15.5040  15.8381  19.8141  22.8383  22.9890  23.3959  24.9063  27.1114
    30.3719  30.5751  33.2347  33.6431  36.1069  36.3282  36.6049  40.1450
    40.9316  41.1724

          k = 0.5000 0.3500 0.0000 (   908 PWs)   bands (ev):

   -23.5376  -7.3435  -6.9746  -5.4757   9.1441  11.2437  14.5008  15.1381
    15.1511  16.0843  19.5753  23.0222  23.1492  23.2650  24.3755  27.7399
    28.7837  31.8830  32.7942  33.0937  36.4024  36.6515  38.1817  39.8053
    41.1970  41.5902

          k = 0.5000 0.4000 0.0000 (   908 PWs)   bands (ev):

   -23.5145  -7.3117  -7.1424  -5.4568   8.8537  11.3791  14.5937  14.8906
    15.8949  16.2863  19.5456  22.8838  23.1613  23.5063  23.9817  27.1346
    28.6536  32.4697  32.6510  33.4725  36.4631  37.0288  38.3158  39.7905
    40.3832  41.8103

          k = 0.5000 0.4500 0.0000 (   906 PWs)   bands (ev):

   -23.4996  -7.2911  -7.2480  -5.4446   8.6764  11.4711  14.6557  14.7311
    16.3374  16.4217  19.7152  22.6747  23.4357  23.6452  23.7387  25.7690
    29.5257  32.2700  32.3349  35.1101  36.5061  37.1518  37.2514  38.6942
    41.3096  42.0884

          k = 0.5000 0.5000 0.0000 (   888 PWs)   bands (ev):

   -23.4944  -7.2839  -7.2839  -5.4403   8.6168  11.5038  14.6775  14.6775
    16.4698  16.4698  19.8358  22.5977  23.6566  23.6903  23.6903  25.1001
    29.9196  32.2026  32.2026  36.3514  36.6224  36.6893  37.3253  37.3253
    42.1693  42.1693

          k = 0.4750 0.4750 0.0000 (   898 PWs)   bands (ev):

   -23.4970  -7.2773  -7.2760  -5.4425   8.6466  11.4872  14.6814  14.6895
    16.4253  16.4265  19.7687  22.6340  23.3978  23.6977  23.8350  25.4392
    29.7283  32.0133  32.4839  35.7606  36.1250  36.9232  37.8255  37.8815
    41.8429  41.9417

          k = 0.4500 0.4500 0.0000 (   912 PWs)   bands (ev):

   -23.5048  -7.2574  -7.2527  -5.4488   8.7353  11.4382  14.6936  14.7253
    16.2881  16.2979  19.6097  22.6384  22.9749  23.8204  24.2300  26.0951
    29.3381  31.5372  33.1527  34.8438  35.3941  37.5314  38.5627  38.6766
    41.1494  41.3514

          k = 0.4250 0.4250 0.0000 (   908 PWs)   bands (ev):

   -23.5174  -7.2243  -7.2140  -5.4592   8.8804  11.3592  14.7156  14.7849
    16.0519  16.0885  19.4400  22.2125  23.0517  24.0221  24.7981  26.7918
    28.9818  30.9246  33.8914  34.0133  34.6477  38.3531  39.3139  39.3563
    40.3483  40.5559

          k = 0.4000 0.4000 0.0000 (   912 PWs)   bands (ev):

   -23.5347  -7.1781  -7.1608  -5.4733   9.0770  11.2544  14.7496  14.8677
    15.7184  15.8051  19.3194  21.7414  23.2771  24.2982  25.4720  27.3630
    28.8580  30.2752  32.9388  33.9043  34.9853  39.1147  39.6631  39.6853
    39.7718  40.0462

          k = 0.3750 0.3750 0.0000 (   912 PWs)   bands (ev):

   -23.5561  -7.1191  -7.0937  -5.4909   9.3166  11.1305  14.7983  14.9730
    15.3025  15.4583  19.2715  21.3518  23.5072  24.6424  26.1971  27.6186
    29.1888  29.6516  32.0008  33.1690  36.0293  38.5194  38.7408  39.8540
    40.4163  40.7255

          k = 0.3500 0.3500 0.0000 (   906 PWs)   bands (ev):

   -23.5811  -7.0476  -7.0139  -5.5115   9.5824  10.9998  14.8281  14.8645
    15.0654  15.1001  19.2955  21.0610  23.6859  25.0451  26.8972  27.7164
    29.1297  29.8461  31.0892  32.4449  37.0481  37.6584  37.9047  39.6990
    41.2901  41.3829

          k = 0.3250 0.3250 0.0000 (   904 PWs)   bands (ev):

   -23.6091  -6.9642  -6.9227  -5.5347   9.8383  10.8886  14.3192  14.6527
    14.9509  15.2478  19.3810  20.8692  23.7753  25.4895  27.3469  27.9023
    28.9296  30.2207  30.5938  31.7343  36.7949  36.7963  38.4116  39.4326
    41.3274  41.6395

          k = 0.3000 0.3000 0.0000 (   902 PWs)   bands (ev):

   -23.6394  -6.8700  -6.8218  -5.5598  10.0044  10.8563  13.7960  14.2591
    15.0599  15.4146  19.5165  20.7681  23.7710  25.9405  27.2436  28.2443
    29.3443  29.4296  31.0399  31.3222  35.9566  36.0086  39.1268  39.4605
    40.3333  41.6957

          k = 0.2750 0.2750 0.0000 (   902 PWs)   bands (ev):

   -23.6711  -6.7663  -6.7132  -5.5863   9.9974  10.9468  13.2740  13.9427
    15.1932  15.5986  19.6921  20.7445  23.7008  26.3032  26.8674  28.7217
    28.8089  30.0700  30.3647  31.9277  35.1752  35.3649  38.8167  38.9452
    40.8582  41.5089

          k = 0.2500 0.2500 0.0000 (   909 PWs)   bands (ev):

   -23.7036  -6.6547  -6.5990  -5.6134   9.8582  11.0551  12.7650  13.7836
    15.3521  15.7975  19.8991  20.7831  23.6043  26.3509  26.4583  28.5831
    29.2718  29.7122  30.8035  32.2439  34.5206  35.0458  37.8126  38.5209
    41.1974  41.8719

          k = 0.2250 0.2250 0.0000 (   907 PWs)   bands (ev):

   -23.7360  -6.5375  -6.4818  -5.6406   9.6563  11.0529  12.2782  13.8527
    15.5371  16.0082  20.1294  20.8666  23.5186  25.9618  26.0805  28.8712
    29.0865  29.7719  31.3035  32.2288  34.1774  35.0261  36.8525  38.2511
    40.8457  41.6283

          k = 0.2000 0.2000 0.0000 (   915 PWs)   bands (ev):

   -23.7675  -6.4174  -6.3644  -5.6671   9.4221  10.9231  11.8213  14.1454
    15.7473  16.2271  20.3744  20.9763  23.4752  25.3547  25.7563  28.4924
    29.4508  29.9627  31.2867  32.2844  34.4132  34.5619  36.6873  38.0159
    40.4971  41.3281

          k = 0.1750 0.1750 0.0000 (   911 PWs)   bands (ev):

   -23.7974  -6.2975  -6.2497  -5.6923   9.1689  10.7256  11.4010  14.5917
    15.9812  16.4493  20.6245  21.0931  23.5015  24.6931  25.4990  27.9361
    29.6697  30.1531  30.8404  32.7627  33.5442  35.1362  37.2547  37.8239
    40.1725  41.0583

          k = 0.1500 0.1500 0.0000 (   915 PWs)   bands (ev):

   -23.8248  -6.1816  -6.1411  -5.7156   8.9084  10.5178  11.0232  15.1213
    16.2349  16.6690  20.8680  21.2012  23.6186  24.0381  25.3195  27.4244
    29.1022  30.2302  30.9092  32.3970  33.5568  36.0782  37.6859  38.0309
    39.8827  40.8273

          k = 0.1250 0.1250 0.0000 (   917 PWs)   bands (ev):

   -23.8493  -6.0735  -6.0418  -5.7364   8.6540  10.3304  10.6932  15.6818
    16.5023  16.8790  21.0919  21.2937  23.4172  23.8373  25.2277  26.9653
    28.4513  29.5805  31.2783  31.6791  34.4732  37.1107  37.6174  38.8608
    39.6332  40.6440

          k = 0.1000 0.1000 0.0000 (   917 PWs)   bands (ev):

   -23.8701  -5.9775  -5.9551  -5.7542   8.4208  10.1754  10.4158  16.2303
    16.7737  17.0708  21.2836  21.3745  22.8500  24.1562  25.2309  26.5685
    27.8018  28.9406  30.2084  32.4228  35.4632  37.6431  38.1691  39.4268
    39.6729  40.5291

          k = 0.0750 0.0750 0.0000 (   919 PWs)   bands (ev):

   -23.8868  -5.8976  -5.8840  -5.7685   8.2233  10.0559  10.1952  16.7247
    17.0330  17.2349  21.4334  21.4520  22.3571  24.5638  25.3283  26.2441
    27.2044  28.3382  29.2125  33.0888  36.4891  37.7987  39.1485  39.2653
    40.3305  40.5689

          k = 0.0500 0.0500 0.0000 (   917 PWs)   bands (ev):

   -23.8991  -5.8375  -5.8311  -5.7790   8.0734   9.9717  10.0350  17.1215
    17.2566  17.3615  21.5286  21.5376  21.9653  25.0392  25.5026  26.0025
    26.7090  27.8023  28.3156  33.6149  37.5153  38.1242  39.1495  39.7201
    40.4956  41.0814

          k = 0.0250 0.0250 0.0000 (   917 PWs)   bands (ev):

   -23.9065  -5.8001  -5.7985  -5.7853   7.9799   9.9217   9.9378  17.3796
    17.4126  17.4417  21.5917  21.5977  21.7078  25.5285  25.7015  25.8531
    26.3732  27.3876  27.5732  33.9468  38.4750  38.6270  39.0799  39.8489
    40.2131  40.4319

          k = 0.0000 0.0000 0.0000 (   925 PWs)   bands (ev):

   -23.9090  -5.7875  -5.7875  -5.7875   7.9482   9.9051   9.9051  17.4692
    17.4692  17.4692  21.6171  21.6171  21.6171  25.8025  25.8025  25.8025
    26.2527  27.2150  27.2150  34.0587  39.0566  39.0566  39.0566  39.8659
    39.8659  39.8659

          k = 0.0250 0.0250 0.0250 (   916 PWs)   bands (ev):

   -23.9053  -5.7999  -5.7974  -5.7974   7.9958   9.9420   9.9420  17.3535
    17.3967  17.3967  21.6326  21.6437  21.6437  25.5570  25.5570  25.8268
    26.4348  27.6024  27.6024  33.8882  38.2502  38.7601  38.7601  40.1638
    40.1638  40.5157

          k = 0.0500 0.0500 0.0500 (   916 PWs)   bands (ev):

   -23.8941  -5.8363  -5.8268  -5.8268   8.1368  10.0518  10.0518  17.0358
    17.1841  17.1841  21.6790  21.7219  21.7219  25.1680  25.1680  25.8995
    26.9507  28.4118  28.4118  33.3568  37.2611  38.2875  38.2875  40.2826
    40.2826  41.1334

          k = 0.0750 0.0750 0.0750 (   910 PWs)   bands (ev):

   -23.8757  -5.8943  -5.8742  -5.8742   8.3647  10.2323  10.2323  16.5843
    16.8472  16.8472  21.7557  21.8480  21.8480  24.8728  24.8728  26.0206
    27.7302  29.3890  29.3890  32.4686  36.5152  37.8326  37.8326  39.4209
    39.4209  41.4381

          k = 0.1000 0.1000 0.1000 (   916 PWs)   bands (ev):

   -23.8507  -5.9704  -5.9376  -5.9376   8.6684  10.4800  10.4800  16.0718
    16.4100  16.4100  21.8587  22.0169  22.0169  24.7177  24.7177  26.1899
    28.6952  30.4561  30.4561  31.3325  36.0147  37.4148  37.4148  38.3780
    38.3780  41.2640

          k = 0.1250 0.1250 0.1250 (   916 PWs)   bands (ev):

   -23.8196  -6.0600  -6.0142  -6.0142   9.0307  10.7897  10.7897  15.5611
    15.9024  15.9024  21.9800  22.2235  22.2235  24.7047  24.7047  26.4071
    29.6714  30.2003  31.5556  31.5556  35.6880  36.9654  36.9654  37.4687
    37.4687  40.7402

          k = 0.1500 0.1500 0.1500 (   910 PWs)   bands (ev):

   -23.7831  -6.1588  -6.1012  -6.1012   9.4252  11.1537  11.1537  15.1070
    15.3560  15.3560  22.1037  22.4635  22.4635  24.8226  24.8226  26.6720
    28.7630  31.0104  32.5795  32.5795  35.4969  36.2846  36.2846  37.0143
    37.0143  40.0971

          k = 0.1750 0.1750 0.1750 (   916 PWs)   bands (ev):

   -23.7422  -6.2622  -6.1954  -6.1954   9.8128  11.5596  11.5596  14.7652
    14.8033  14.8033  22.1993  22.7335  22.7335  25.0564  25.0564  26.9840
    27.5845  32.1385  33.1991  33.1991  35.4590  35.8380  35.8380  36.8720
    36.8720  39.4382

          k = 0.2000 0.2000 0.2000 (   910 PWs)   bands (ev):

   -23.6978  -6.3663  -6.2935  -6.2935  10.1391  11.9808  11.9808  14.2866
    14.2866  14.5982  22.2058  23.0312  23.0312  25.3894  25.3894  26.5566
    27.3426  32.9668  32.9668  33.0896  35.6448  35.9848  35.9848  37.1195
    37.1195  38.8599

          k = 0.2250 0.2250 0.2250 (   910 PWs)   bands (ev):

   -23.6511  -6.4679  -6.3928  -6.3928  10.3485  12.3361  12.3361  13.8977
    13.8977  14.6647  22.0198  23.3537  23.3537  25.8043  25.8044  25.8044
    27.7468  32.2331  32.2331  33.6780  36.0007  36.1166  36.1166  37.9895
    37.9895  38.5919

          k = 0.2500 0.2500 0.2500 (   925 PWs)   bands (ev):

   -23.6032  -6.5643  -6.4907  -6.4907  10.4191  12.4082  12.4082  13.8611
    13.8611  14.9861  21.5496  23.6964  23.6964  25.4298  26.2805  26.2805
    28.1955  31.3866  31.3866  33.9606  36.0221  36.1541  36.1541  39.0658
    39.0979  39.0979

          k = 0.2750 0.2750 0.2750 (   916 PWs)   bands (ev):

   -23.5553  -6.6534  -6.5847  -6.5847  10.3802  12.1381  12.1381  14.2405
    14.2405  15.5290  20.8355  24.0501  24.0501  25.3993  26.7845  26.7845
    28.6872  30.5664  30.5664  34.1184  35.5943  36.1898  36.1898  39.9159
    39.9159  40.1302

          k = 0.3000 0.3000 0.3000 (   922 PWs)   bands (ev):

   -23.5085  -6.7342  -6.6730  -6.6730  10.2839  11.7537  11.7537  14.8103
    14.8103  16.2337  20.0048  24.3954  24.3954  25.5903  27.2426  27.2426
    29.2196  29.8850  29.8850  34.2426  35.0074  36.2227  36.2227  39.8431
    39.8431  40.5424

          k = 0.3250 0.3250 0.3250 (   931 PWs)   bands (ev):

   -23.4640  -6.8056  -6.7539  -6.7539  10.1738  11.3660  11.3660  15.4606
    15.4606  17.0449  19.1562  24.6887  24.6887  25.9080  27.4798  27.4798
    29.5586  29.5586  29.7894  34.2261  34.5281  36.1936  36.1936  39.3256
    39.3256  39.4662

          k = 0.3500 0.3500 0.3500 (   931 PWs)   bands (ev):

   -23.4230  -6.8672  -6.8260  -6.8260  10.0768  11.0091  11.0091  16.1572
    16.1572  17.9139  18.3506  24.8337  24.8337  26.3002  27.3983  27.3983
    29.7691  29.7691  30.3913  33.6622  34.6089  35.9892  35.9892  38.1973
    38.9519  38.9519

          k = 0.3750 0.3750 0.3750 (   931 PWs)   bands (ev):

   -23.3864  -6.9190  -6.8885  -6.8885  10.0059  10.6965  10.6965  16.8850
    16.8850  17.6000  18.8234  24.6861  24.6861  26.7363  27.3279  27.3279
    30.3097  30.3097  31.0172  33.0406  34.7445  35.5421  35.5421  37.0070
    38.9237  38.9237

          k = 0.4000 0.4000 0.4000 (   925 PWs)   bands (ev):

   -23.3551  -6.9610  -6.9405  -6.9405   9.9643  10.4348  10.4348  16.9552
    17.6338  17.6338  19.7059  24.2181  24.2181  27.1939  27.4855  27.4855
    30.9586  30.9586  31.6532  32.4448  34.6939  34.9393  34.9393  36.1201
    39.1899  39.1899

          k = 0.4250 0.4250 0.4250 (   925 PWs)   bands (ev):

   -23.3299  -6.9934  -6.9813  -6.9813   9.9481  10.2282  10.2282  16.4240
    18.3920  18.3920  20.5234  23.5630  23.5630  27.6486  27.7936  27.7936
    31.6068  31.6068  31.9007  32.2743  34.1291  34.3173  34.3173  35.8898
    39.4636  39.4636

          k = 0.4500 0.4500 0.4500 (   925 PWs)   bands (ev):

   -23.3114  -7.0164  -7.0108  -7.0108   9.9488  10.0790  10.0790  16.0261
    19.1385  19.1385  21.2078  22.8466  22.8466  28.0636  28.1305  28.1305
    31.4452  32.1644  32.1644  32.8338  33.3790  33.7917  33.7917  36.0158
    39.0434  39.0434

          k = 0.4750 0.4750 0.4750 (   913 PWs)   bands (ev):

   -23.3002  -7.0300  -7.0286  -7.0286   9.9554   9.9889   9.9889  15.7789
    19.8096  19.8096  21.6746  22.1810  22.1810  28.3756  28.3946  28.3946
    31.1328  32.5115  32.5115  32.8120  33.2495  33.4800  33.4800  36.1681
    38.5793  38.5793

          k = 0.5000 0.5000 0.5000 (   912 PWs)   bands (ev):

   -23.2964  -7.0345  -7.0345  -7.0345   9.9588   9.9588   9.9588  15.6949
    20.1485  20.1485  21.8422  21.8422  21.8422  28.4963  28.4963  28.4963
    31.0205  32.5994  32.5994  32.5994  33.4087  33.4087  33.4087  36.2309
    38.4015  38.4015

     Writing all to output data dir ./work/POSCAR.save/

     init_run     :      0.15s CPU      0.19s WALL (       1 calls)
     electrons    :      2.47s CPU      2.77s WALL (       1 calls)

     Called by init_run:
     wfcinit      :      0.00s CPU      0.01s WALL (       1 calls)
     potinit      :      0.06s CPU      0.09s WALL (       1 calls)
     hinit0       :      0.08s CPU      0.08s WALL (       1 calls)

     Called by electrons:
     c_bands      :      2.46s CPU      2.77s WALL (       1 calls)
     v_of_rho     :      0.00s CPU      0.00s WALL (       1 calls)
     newd         :      0.00s CPU      0.00s WALL (       1 calls)
     PAW_pot      :      0.02s CPU      0.04s WALL (       1 calls)

     Called by c_bands:
     init_us_2    :      0.00s CPU      0.00s WALL (      91 calls)
     init_us_2:cp :      0.00s CPU      0.00s WALL (      91 calls)
     cegterg      :      2.28s CPU      2.38s WALL (     116 calls)

     Called by *egterg:
     cdiaghg      :      0.85s CPU      0.88s WALL (    1734 calls)
     h_psi        :      1.18s CPU      1.24s WALL (    1850 calls)
     s_psi        :      0.02s CPU      0.02s WALL (    1850 calls)
     g_psi        :      0.01s CPU      0.01s WALL (    1643 calls)

     Called by h_psi:
     h_psi:calbec :      0.06s CPU      0.06s WALL (    1850 calls)
     vloc_psi     :      1.10s CPU      1.16s WALL (    1850 calls)
     add_vuspsi   :      0.02s CPU      0.02s WALL (    1850 calls)

     General routines
     calbec       :      0.06s CPU      0.06s WALL (    1850 calls)
     fft          :      0.05s CPU      0.05s WALL (      13 calls)
     ffts         :      0.03s CPU      0.03s WALL (       1 calls)
     fftw         :      1.01s CPU      1.06s WALL (   51438 calls)
     interpolate  :      0.03s CPU      0.03s WALL (       1 calls)
     davcio       :      0.00s CPU      0.15s WALL (     182 calls)

     Parallel routines

     PWSCF        :      2.93s CPU      3.95s WALL


   This run was terminated on:  22:39:57  15May2024            

=------------------------------------------------------------------------------=
   JOB DONE.
=------------------------------------------------------------------------------=
