
     Program PWSCF v.7.1 starts on 15May2024 at 22:39:49 

     This program is part of the open-source Quantum ESPRESSO suite
     for quantum simulation of materials; please cite
         "P. Giannozzi et al., J. Phys.:Condens. Matter 21 395502 (2009);
         "P. Giannozzi et al., J. Phys.:Condens. Matter 29 465901 (2017);
         "P. Giannozzi et al., J. Chem. Phys. 152 154105 (2020);
          URL http://www.quantum-espresso.org", 
     in publications or presentations arising from this work. More details at
     http://www.quantum-espresso.org/quote

     Parallel version (MPI & OpenMP), running on      10 processor cores
     Number of MPI processes:                10
     Threads/MPI process:                     1

     MPI processes distributed on     1 nodes
     14558 MiB available memory on the printing compute node when the environment starts

     Waiting for input...
     Reading input from standard input

     Current dimensions of program PWSCF are:
     Max number of different atomic species (ntypx) = 10
     Max number of k-points (npk) =  40000
     Max angular momentum in pseudopotentials (lmaxx) =  4
     file Ce.pbe-spdn-kjpaw_psl.1.0.0.UPF: wavefunction(s)  5D renormalized
     Message from routine setup:
     using ibrav=0 with symmetry is DISCOURAGED, use correct ibrav instead

     R & G space division:  proc/nbgrp/npool/nimage =      10
     Subspace diagonalization in iterative solution of the eigenvalue problem:
     a serial algorithm will be used


     Parallelization info
     --------------------
     sticks:   dense  smooth     PW     G-vecs:    dense   smooth      PW
     Min          55      44     14                  976      713     134
     Max          56      45     15                  978      716     137
     Sum         553     441    145                 9771     7153    1357

     Using Slab Decomposition



     bravais-lattice index     =            0
     lattice parameter (alat)  =       6.2177  a.u.
     unit-cell volume          =     240.3783 (a.u.)^3
     number of atoms/cell      =            1
     number of atomic types    =            1
     number of electrons       =        11.00
     number of Kohn-Sham states=           26
     kinetic-energy cutoff     =      37.0000  Ry
     charge density cutoff     =     179.0000  Ry
     scf convergence threshold =      7.3E-05
     mixing beta               =       0.7000
     number of iterations used =            8  plain     mixing
     Exchange-correlation= SLA  PW   PBX  PBC
                           (   1   4   3   4   0   0   0)

     celldm(1)=   6.217728  celldm(2)=   0.000000  celldm(3)=   0.000000
     celldm(4)=   0.000000  celldm(5)=   0.000000  celldm(6)=   0.000000

     crystal axes: (cart. coord. in units of alat)
               a(1) = (   1.000000   0.000000   0.000000 )  
               a(2) = (   0.000000   1.000000   0.000000 )  
               a(3) = (   0.000000   0.000000   1.000000 )  

     reciprocal axes: (cart. coord. in units 2 pi/alat)
               b(1) = (  1.000000  0.000000  0.000000 )  
               b(2) = (  0.000000  1.000000  0.000000 )  
               b(3) = (  0.000000  0.000000  1.000000 )  


     PseudoPot. # 1 for Ce read from file:
     ./../../../../pseudo/psl100_PBE/Ce.pbe-spdn-kjpaw_psl.1.0.0.UPF
     MD5 check sum: 1a25380276e46fcecd5a173acdad072c
     Pseudo is Projector augmented-wave + core cor, Zval = 11.0
     Generated using 'atomic' code by A. Dal Corso  v.7.2
     Shape of augmentation charge: PSQ
     Using radial grid of 1255 points,  6 beta functions with: 
                l(1) =   0
                l(2) =   0
                l(3) =   1
                l(4) =   1
                l(5) =   2
                l(6) =   2
     Q(r) pseudized with 0 coefficients 


     atomic species   valence    mass     pseudopotential
        Ce            11.00   140.11600     Ce( 1.00)

     48 Sym. Ops., with inversion, found



   Cartesian axes

     site n.     atom                  positions (alat units)
         1           Ce  tau(   1) = (   0.0000000   0.0000000   0.0000000  )

     number of k points=    56  Methfessel-Paxton smearing, width (Ry)=  0.0200
                       cart. coord. in units 2pi/alat
        k(    1) = (   0.0000000   0.0000000   0.0000000), wk =   0.0020000
        k(    2) = (   0.0000000   0.0000000   0.1000000), wk =   0.0120000
        k(    3) = (   0.0000000   0.0000000   0.2000000), wk =   0.0120000
        k(    4) = (   0.0000000   0.0000000   0.3000000), wk =   0.0120000
        k(    5) = (   0.0000000   0.0000000   0.4000000), wk =   0.0120000
        k(    6) = (   0.0000000   0.0000000  -0.5000000), wk =   0.0060000
        k(    7) = (   0.0000000   0.1000000   0.1000000), wk =   0.0240000
        k(    8) = (   0.0000000   0.1000000   0.2000000), wk =   0.0480000
        k(    9) = (   0.0000000   0.1000000   0.3000000), wk =   0.0480000
        k(   10) = (   0.0000000   0.1000000   0.4000000), wk =   0.0480000
        k(   11) = (   0.0000000   0.1000000  -0.5000000), wk =   0.0240000
        k(   12) = (   0.0000000   0.2000000   0.2000000), wk =   0.0240000
        k(   13) = (   0.0000000   0.2000000   0.3000000), wk =   0.0480000
        k(   14) = (   0.0000000   0.2000000   0.4000000), wk =   0.0480000
        k(   15) = (   0.0000000   0.2000000  -0.5000000), wk =   0.0240000
        k(   16) = (   0.0000000   0.3000000   0.3000000), wk =   0.0240000
        k(   17) = (   0.0000000   0.3000000   0.4000000), wk =   0.0480000
        k(   18) = (   0.0000000   0.3000000  -0.5000000), wk =   0.0240000
        k(   19) = (   0.0000000   0.4000000   0.4000000), wk =   0.0240000
        k(   20) = (   0.0000000   0.4000000  -0.5000000), wk =   0.0240000
        k(   21) = (   0.0000000  -0.5000000  -0.5000000), wk =   0.0060000
        k(   22) = (   0.1000000   0.1000000   0.1000000), wk =   0.0160000
        k(   23) = (   0.1000000   0.1000000   0.2000000), wk =   0.0480000
        k(   24) = (   0.1000000   0.1000000   0.3000000), wk =   0.0480000
        k(   25) = (   0.1000000   0.1000000   0.4000000), wk =   0.0480000
        k(   26) = (   0.1000000   0.1000000  -0.5000000), wk =   0.0240000
        k(   27) = (   0.1000000   0.2000000   0.2000000), wk =   0.0480000
        k(   28) = (   0.1000000   0.2000000   0.3000000), wk =   0.0960000
        k(   29) = (   0.1000000   0.2000000   0.4000000), wk =   0.0960000
        k(   30) = (   0.1000000   0.2000000  -0.5000000), wk =   0.0480000
        k(   31) = (   0.1000000   0.3000000   0.3000000), wk =   0.0480000
        k(   32) = (   0.1000000   0.3000000   0.4000000), wk =   0.0960000
        k(   33) = (   0.1000000   0.3000000  -0.5000000), wk =   0.0480000
        k(   34) = (   0.1000000   0.4000000   0.4000000), wk =   0.0480000
        k(   35) = (   0.1000000   0.4000000  -0.5000000), wk =   0.0480000
        k(   36) = (   0.1000000  -0.5000000  -0.5000000), wk =   0.0120000
        k(   37) = (   0.2000000   0.2000000   0.2000000), wk =   0.0160000
        k(   38) = (   0.2000000   0.2000000   0.3000000), wk =   0.0480000
        k(   39) = (   0.2000000   0.2000000   0.4000000), wk =   0.0480000
        k(   40) = (   0.2000000   0.2000000  -0.5000000), wk =   0.0240000
        k(   41) = (   0.2000000   0.3000000   0.3000000), wk =   0.0480000
        k(   42) = (   0.2000000   0.3000000   0.4000000), wk =   0.0960000
        k(   43) = (   0.2000000   0.3000000  -0.5000000), wk =   0.0480000
        k(   44) = (   0.2000000   0.4000000   0.4000000), wk =   0.0480000
        k(   45) = (   0.2000000   0.4000000  -0.5000000), wk =   0.0480000
        k(   46) = (   0.2000000  -0.5000000  -0.5000000), wk =   0.0120000
        k(   47) = (   0.3000000   0.3000000   0.3000000), wk =   0.0160000
        k(   48) = (   0.3000000   0.3000000   0.4000000), wk =   0.0480000
        k(   49) = (   0.3000000   0.3000000  -0.5000000), wk =   0.0240000
        k(   50) = (   0.3000000   0.4000000   0.4000000), wk =   0.0480000
        k(   51) = (   0.3000000   0.4000000  -0.5000000), wk =   0.0480000
        k(   52) = (   0.3000000  -0.5000000  -0.5000000), wk =   0.0120000
        k(   53) = (   0.4000000   0.4000000   0.4000000), wk =   0.0160000
        k(   54) = (   0.4000000   0.4000000  -0.5000000), wk =   0.0240000
        k(   55) = (   0.4000000  -0.5000000  -0.5000000), wk =   0.0120000
        k(   56) = (  -0.5000000  -0.5000000  -0.5000000), wk =   0.0020000

     Dense  grid:     9771 G-vectors     FFT dimensions: (  27,  27,  27)

     Smooth grid:     7153 G-vectors     FFT dimensions: (  25,  25,  25)

     Estimated max dynamical RAM per process >       6.50 MB

     Estimated total dynamical RAM >      64.99 MB

     Initial potential from superposition of free atoms

     starting charge      10.9735, renormalised to      11.0000
     Starting wfcs are   13 randomized atomic wfcs +   13 random wfcs
     Checking if some PAW data can be deallocated... 

     total cpu time spent up to now is        0.5 secs

     per-process dynamical memory:    13.3 Mb

     Self-consistent Calculation

     iteration #  1     ecut=    37.00 Ry     beta= 0.70
     Davidson diagonalization with overlap
     ethr =  1.00E-02,  avg # of iterations =  6.9

     Threshold (ethr) on eigenvalues was too large:
     Diagonalizing with lowered threshold

     Davidson diagonalization with overlap
     ethr =  5.55E-05,  avg # of iterations =  3.8

     total cpu time spent up to now is        1.8 secs

     total energy              =    -471.69689539 Ry
     estimated scf accuracy    <       0.00630816 Ry

     iteration #  2     ecut=    37.00 Ry     beta= 0.70
     Davidson diagonalization with overlap
     ethr =  5.73E-05,  avg # of iterations =  1.7

     total cpu time spent up to now is        2.2 secs

     total energy              =    -471.69842615 Ry
     estimated scf accuracy    <       0.00040011 Ry

     iteration #  3     ecut=    37.00 Ry     beta= 0.70
     Davidson diagonalization with overlap
     ethr =  3.64E-06,  avg # of iterations =  2.6

     total cpu time spent up to now is        2.6 secs

     End of self-consistent calculation

          k = 0.0000 0.0000 0.0000 (   925 PWs)   bands (ev):

   -23.9056  -5.7854  -5.7854  -5.7854   7.9472   9.9040   9.9040  17.4698
    17.4698  17.4698  21.6147  21.6147  21.6147  25.7996  25.7996  25.7996
    26.2570  27.2149  27.2149  34.0574  39.0537  39.0537  39.0538  39.8681
    39.8681  39.8682

          k = 0.0000 0.0000 0.1000 (   916 PWs)   bands (ev):

   -23.8860  -5.9822  -5.7687  -5.7687   8.1813   9.9707  10.2336  16.8680
    16.8680  17.5075  20.7494  22.2131  22.2131  24.1167  26.2176  26.2176
    26.7663  27.9823  29.2010  33.3265  37.1167  37.1167  38.2907  39.4312
    40.1123  41.7646

          k = 0.0000 0.0000 0.2000 (   912 PWs)   bands (ev):

   -23.8344  -6.4643  -5.7246  -5.7246   8.7109  10.1551  11.1920  15.7640
    15.7640  17.6088  19.3634  22.2283  23.2090  23.2090  27.0724  27.5190
    27.5190  30.2471  32.0045  32.0210  34.6848  35.1719  35.1719  37.1360
    42.4073  42.7451

          k = 0.0000 0.0000 0.3000 (   904 PWs)   bands (ev):

   -23.7693  -7.0069  -5.6692  -5.6692   9.3292  10.4062  12.3413  14.7873
    14.7873  17.7401  18.6516  20.7302  24.0020  24.0020  26.9751  29.3895
    29.3895  30.8738  31.2107  32.4853  33.8968  33.8968  35.0395  36.2353
    42.8905  42.8906

          k = 0.0000 0.0000 0.4000 (   892 PWs)   bands (ev):

   -23.7155  -7.4123  -5.6237  -5.6237   9.9240  10.6332  12.8064  14.1489
    14.1489  17.8519  19.4907  19.7481  24.5532  24.5532  25.2206  29.9226
    30.1183  30.4981  30.4981  32.5365  34.3907  34.3907  38.1563  38.1908
    41.1427  41.1429

          k = 0.0000 0.0000-0.5000 (   884 PWs)   bands (ev):

   -23.6947  -7.5606  -5.6061  -5.6061  10.2151  10.7270  12.7542  13.9285
    13.9285  17.8962  19.4018  21.0333  23.1683  24.7686  24.7686  29.8553
    29.9461  30.5300  30.5300  32.1320  36.0058  36.0058  38.8621  38.8622
    40.6969  41.4108

          k = 0.0000 0.1000 0.1000 (   917 PWs)   bands (ev):

   -23.8666  -5.9755  -5.9531  -5.7521   8.4199  10.1744  10.4147  16.2301
    16.7738  17.0711  21.2815  21.3738  22.8481  24.1546  25.2285  26.5659
    27.8047  28.9398  30.2076  32.4210  35.4634  37.6433  38.1691  39.4240
    39.6730  40.5305

          k = 0.0000 0.1000 0.2000 (   912 PWs)   bands (ev):

   -23.8151  -6.4442  -5.9163  -5.7082   8.9468  10.4110  11.2911  15.1302
    15.8008  17.0818  19.8938  22.2112  22.7237  23.9460  26.3942  27.7185
    28.4895  30.8413  30.9699  32.6811  33.6519  34.7856  36.4443  38.9488
    39.3910  41.2487

          k = 0.0000 0.1000 0.3000 (   904 PWs)   bands (ev):

   -23.7502  -6.9839  -5.8571  -5.6531   9.5489  10.6711  12.2396  14.4574
    14.8416  17.2271  19.0204  21.3029  22.9349  24.7937  28.0069  28.4743
    28.9994  30.3840  31.2426  32.3941  33.8347  35.1638  35.4261  37.7773
    39.6370  42.8922

          k = 0.0000 0.1000 0.4000 (   907 PWs)   bands (ev):

   -23.6966  -7.3875  -5.8083  -5.6079  10.1398  10.9237  12.1613  14.2090
    14.5361  17.3562  19.5625  20.3933  23.4264  25.3728  25.7610  28.4306
    29.1726  30.8096  31.9613  33.0198  34.7146  34.9298  37.6156  38.8875
    40.2806  40.7604

          k = 0.0000 0.1000-0.5000 (   896 PWs)   bands (ev):

   -23.6758  -7.5352  -5.7894  -5.5904  10.4471  11.0689  11.8618  13.9901
    14.5581  17.4079  20.0050  20.9287  23.2434  24.1359  25.6124  28.0997
    28.9839  31.0448  32.4206  33.8651  35.4231  36.0503  37.6935  38.5176
    39.0665  41.4806

          k = 0.0000 0.2000 0.2000 (   915 PWs)   bands (ev):

   -23.7640  -6.4156  -6.3625  -5.6650   9.4212  10.9224  11.8205  14.1444
    15.7470  16.2270  20.3729  20.9759  23.4750  25.3536  25.7537  28.4905
    29.4484  29.9638  31.2860  32.2852  34.4123  34.5621  36.6866  38.0166
    40.4943  41.3300

          k = 0.0000 0.2000 0.3000 (   904 PWs)   bands (ev):

   -23.6995  -6.9232  -6.3191  -5.6108   9.9030  11.0727  12.4520  14.1248
    14.9843  16.2206  19.4950  21.4134  22.8021  26.2678  27.2118  28.2008
    29.0831  30.0568  30.3695  33.0833  33.9646  35.8961  37.4114  38.0175
    40.1442  42.3960

          k = 0.0000 0.2000 0.4000 (   910 PWs)   bands (ev):

   -23.6464  -7.3216  -6.2632  -5.5662  10.3340  10.9403  12.3700  14.3739
    15.0230  16.3623  19.6281  21.8144  22.2379  25.9478  26.4160  27.7074
    27.7578  31.1832  32.8487  33.4934  34.6601  36.5592  36.8598  38.4331
    39.8016  41.5115

          k = 0.0000 0.2000-0.5000 (   908 PWs)   bands (ev):

   -23.6258  -7.4675  -6.2415  -5.5490  10.5957  10.7557  12.3404  14.1596
    15.2623  16.4232  20.5018  21.4574  23.2804  23.4241  26.3175  27.3858
    27.6659  33.1503  34.3756  34.5007  34.7905  34.8973  36.1706  37.7133
    39.7390  41.6820

          k = 0.0000 0.3000 0.3000 (   902 PWs)   bands (ev):

   -23.6358  -6.8684  -6.8202  -5.5576  10.0039  10.8551  13.7953  14.2582
    15.0593  15.4141  19.5154  20.7671  23.7728  25.9396  27.2410  28.2442
    29.3438  29.4271  31.0386  31.3216  35.9554  36.0103  39.1281  39.4609
    40.3330  41.6943

          k = 0.0000 0.3000 0.4000 (   911 PWs)   bands (ev):

   -23.5832  -7.2380  -6.7794  -5.5139   9.7006  10.9746  14.1339  14.5945
    15.4393  15.4419  19.4573  21.3556  23.4353  25.1894  25.7223  27.6301
    29.7850  30.2145  31.1442  33.3115  36.3549  36.6957  38.4960  38.8626
    41.1030  41.7377

          k = 0.0000 0.3000-0.5000 (   908 PWs)   bands (ev):

   -23.5628  -7.3816  -6.7548  -5.4971   9.5389  11.0829  14.2002  14.3884
    15.5036  15.8374  19.8138  22.8369  22.9873  23.3988  24.9048  27.1108
    30.3700  30.5740  33.2336  33.6423  36.1067  36.3276  36.6044  40.1470
    40.9308  41.1724

          k = 0.0000 0.4000 0.4000 (   912 PWs)   bands (ev):

   -23.5310  -7.1766  -7.1592  -5.4710   9.0762  11.2531  14.7490  14.8671
    15.7175  15.8042  19.3191  21.7401  23.2807  24.2967  25.4708  27.3619
    28.8576  30.2732  32.9368  33.9035  34.9849  39.1136  39.6641  39.6830
    39.7722  40.0460

          k = 0.0000 0.4000-0.5000 (   908 PWs)   bands (ev):

   -23.5108  -7.3102  -7.1408  -5.4545   8.8529  11.3778  14.5931  14.8900
    15.8939  16.2851  19.5457  22.8881  23.1598  23.5047  23.9802  27.1334
    28.6531  32.4684  32.6500  33.4709  36.4625  37.0278  38.3131  39.7902
    40.3826  41.8117

          k = 0.0000-0.5000-0.5000 (   888 PWs)   bands (ev):

   -23.4907  -7.2824  -7.2824  -5.4381   8.6159  11.5026  14.6768  14.6768
    16.4685  16.4685  19.8367  22.6025  23.6550  23.6885  23.6885  25.0988
    29.9201  32.2013  32.2013  36.3494  36.6227  36.6858  37.3239  37.3240
    42.1705  42.1706

          k = 0.1000 0.1000 0.1000 (   916 PWs)   bands (ev):

   -23.8472  -5.9684  -5.9355  -5.9355   8.6676  10.4790  10.4790  16.0715
    16.4099  16.4099  21.8590  22.0152  22.0152  24.7158  24.7158  26.1870
    28.6978  30.4551  30.4551  31.3309  36.0156  37.4142  37.4142  38.3772
    38.3772  41.2647

          k = 0.1000 0.1000 0.2000 (   909 PWs)   bands (ev):

   -23.7958  -6.4243  -5.9085  -5.8891   9.2006  10.6582  11.3753  15.1515
    15.2242  16.4769  20.5498  22.6994  22.8835  23.5729  26.2372  27.1501
    29.4149  29.9479  31.8007  32.9333  34.6329  35.0504  35.5450  38.5403
    39.4181  40.8060

          k = 0.1000 0.1000 0.3000 (   914 PWs)   bands (ev):

   -23.7311  -6.9612  -5.8491  -5.8309   9.7946  10.9083  12.1910  14.1746
    14.7988  16.6499  19.5747  21.7171  23.2940  24.3230  27.4747  28.7794
    29.0202  29.5482  31.7609  33.4165  33.8396  34.9610  35.8225  39.0253
    39.0674  41.0271

          k = 0.1000 0.1000 0.4000 (   908 PWs)   bands (ev):

   -23.6777  -7.3629  -5.8000  -5.7829  10.4101  11.1477  11.9539  13.4678
    15.3502  16.8068  19.8447  20.8227  23.6835  24.9156  26.1162  26.8286
    30.5694  31.0973  31.6405  33.3806  33.9422  36.2748  37.4090  39.1059
    39.8501  40.4050

          k = 0.1000 0.1000-0.5000 (   904 PWs)   bands (ev):

   -23.6570  -7.5099  -5.7811  -5.7644  10.8279  11.2540  11.5610  13.2125
    15.5435  16.8718  20.5057  20.9777  23.2718  24.7447  25.1414  26.4073
    30.7858  31.1036  32.1098  35.2125  35.4167  35.4756  37.7801  37.9159
    38.1005  41.0108

          k = 0.1000 0.2000 0.2000 (   911 PWs)   bands (ev):

   -23.7449  -6.3958  -6.3431  -5.8522   9.6904  11.1667  11.8653  14.2087
    15.2403  15.5071  21.3173  21.5963  23.6322  24.7062  25.7764  27.6923
    28.1264  31.2379  32.1369  33.6375  34.3484  34.8733  36.6486  37.2349
    38.5276  40.6861

          k = 0.1000 0.2000 0.3000 (   906 PWs)   bands (ev):

   -23.6806  -6.9009  -6.3001  -5.7944  10.1415  11.3239  12.4655  13.7709
    14.9365  15.6032  20.2981  22.1184  23.0082  25.3359  26.6087  27.9929
    29.4067  29.7288  31.2476  33.8687  34.4367  35.8454  36.7003  38.3753
    40.2617  40.8292

          k = 0.1000 0.2000 0.4000 (   910 PWs)   bands (ev):

   -23.6276  -7.2975  -6.2445  -5.7468  10.4862  11.2720  12.4063  13.2656
    15.7800  16.0146  20.1290  22.2151  22.6369  24.8442  26.3560  26.9119
    29.3562  31.5601  32.0111  34.3374  34.4874  35.4841  37.9548  38.8039
    39.7216  40.5861

          k = 0.1000 0.2000-0.5000 (   910 PWs)   bands (ev):

   -23.6071  -7.4429  -6.2230  -5.7284  10.6098  11.2288  12.3935  13.0131
    15.8653  16.4672  20.8597  21.8125  23.1073  23.8588  25.0643  26.9906
    29.2528  33.2355  33.7226  34.6202  34.8083  35.1855  35.8682  37.9287
    39.4717  40.6008

          k = 0.1000 0.3000 0.3000 (   910 PWs)   bands (ev):

   -23.6170  -6.8464  -6.7989  -5.7378  10.1163  11.2391  13.5498  13.7388
    15.0080  15.2845  20.4799  21.2911  23.5717  25.2057  27.3309  28.5547
    29.3648  29.7400  30.3650  31.6512  36.5599  36.9904  38.2900  39.5204
    39.8815  39.9699

          k = 0.1000 0.3000 0.4000 (   910 PWs)   bands (ev):

   -23.5646  -7.2146  -6.7583  -5.6913   9.7772  11.4186  13.4325  13.7836
    15.2873  16.4693  20.1702  21.6803  22.9228  24.7070  26.3688  28.5257
    29.3238  30.2062  31.2137  32.6831  36.5412  37.2981  37.7136  39.8353
    40.2454  40.8686

          k = 0.1000 0.3000-0.5000 (   914 PWs)   bands (ev):

   -23.5443  -7.3577  -6.7340  -5.6734   9.6160  11.5529  13.1996  13.8466
    15.3819  17.1159  20.4049  22.1815  23.1196  23.3217  25.2215  28.3006
    29.4930  30.7738  33.2973  33.7577  35.1914  35.8353  37.5659  39.2853
    40.6452  41.5401

          k = 0.1000 0.4000 0.4000 (   915 PWs)   bands (ev):

   -23.5126  -7.1538  -7.1367  -5.6457   9.1654  11.7153  13.6263  13.6831
    16.5580  16.8997  19.9385  21.3795  22.5505  25.4658  25.5926  27.5470
    29.3063  30.3512  32.3904  33.2321  35.0581  38.8180  39.1443  39.3788
    40.5608  40.7027

          k = 0.1000 0.4000-0.5000 (   918 PWs)   bands (ev):

   -23.4925  -7.2870  -7.1184  -5.6281   8.9453  11.8646  13.4336  13.7514
    16.8308  17.5657  19.9396  21.2493  23.3860  23.7429  25.4626  27.1148
    29.1142  32.5296  32.7713  32.8777  35.9978  36.1380  38.4121  39.4007
    40.7944  41.0879

          k = 0.1000-0.5000-0.5000 (   916 PWs)   bands (ev):

   -23.4724  -7.2595  -7.2595  -5.6107   8.7115  12.0125  13.5372  13.5372
    17.7445  17.7445  19.8648  20.8809  23.9217  23.9217  25.1026  25.3445
    30.2880  32.2696  32.2696  35.9118  36.1602  36.4386  36.4386  36.7977
    41.3026  41.7376

          k = 0.2000 0.2000 0.2000 (   910 PWs)   bands (ev):

   -23.6943  -6.3645  -6.2916  -6.2916  10.1387  11.9799  11.9799  14.2858
    14.2858  14.5969  22.2082  23.0308  23.0308  25.3871  25.3871  26.5547
    27.3398  32.9664  32.9664  33.0911  35.6454  35.9846  35.9846  37.1184
    37.1184  38.8604

          k = 0.2000 0.2000 0.3000 (   916 PWs)   bands (ev):

   -23.6305  -6.8419  -6.2695  -6.2269  10.3985  12.0912  12.4719  13.2940
    14.5538  15.1342  21.4429  22.7730  23.6749  25.2605  25.2815  27.9223
    28.5405  29.9921  33.1871  33.2695  34.8141  36.1839  37.2765  38.4043
    39.1880  39.5775

          k = 0.2000 0.2000 0.4000 (   910 PWs)   bands (ev):

   -23.5779  -7.2336  -6.2143  -6.1735  10.4687  12.0465  12.3076  12.8114
    14.8696  16.8556  20.8779  22.4199  23.1170  24.7846  25.9454  26.7799
    30.5103  30.8146  32.7356  33.1019  34.3795  36.6208  37.6058  38.6793
    38.8663  40.7466

          k = 0.2000 0.2000-0.5000 (   918 PWs)   bands (ev):

   -23.5576  -7.3774  -6.1927  -6.1528  10.4598  11.9489  12.2437  12.7368
    14.9773  17.7908  21.2340  21.8526  22.8654  24.7630  25.1557  26.2075
    31.4894  31.8016  33.0094  34.3422  34.9941  35.2450  36.8108  36.9053
    38.0779  41.5564

          k = 0.2000 0.3000 0.3000 (   921 PWs)   bands (ev):

   -23.5674  -6.7883  -6.7425  -6.1827  10.2810  11.9604  12.7022  13.4079
    14.7561  15.6288  21.1694  22.4394  24.2551  24.8105  27.2589  27.4962
    29.1141  29.7108  31.1833  32.5774  36.3071  36.7096  37.8653  39.1925
    39.3429  39.7309

          k = 0.2000 0.3000 0.4000 (   914 PWs)   bands (ev):

   -23.5153  -7.1527  -6.7025  -6.1299   9.9630  11.8420  12.4583  13.4304
    15.2960  17.4105  20.4780  21.8840  24.0114  24.8622  26.7491  27.8804
    29.9556  30.5613  31.3607  32.1430  35.7298  36.6190  37.5772  38.9977
    39.5807  40.3748

          k = 0.2000 0.3000-0.5000 (   928 PWs)   bands (ev):

   -23.4952  -7.2943  -6.6788  -6.1094   9.8138  11.7804  12.3791  13.4770
    15.4175  18.6675  20.4507  21.2742  24.0389  24.5383  25.5133  28.1615
    30.5254  30.6129  33.4603  33.5547  34.3131  34.8425  37.1512  37.6782
    39.5632  41.9113

          k = 0.2000 0.4000 0.4000 (   919 PWs)   bands (ev):

   -23.4637  -7.0932  -7.0769  -6.0783   9.4155  11.9492  12.2666  13.4186
    17.1423  18.0493  19.6441  21.5042  23.7723  25.9914  26.1571  27.6086
    30.5602  30.9484  31.4457  32.0323  35.2462  36.8484  37.8435  38.0149
    39.5519  40.0278

          k = 0.2000 0.4000-0.5000 (   920 PWs)   bands (ev):

   -23.4437  -7.2253  -7.0589  -6.0583   9.2071  11.9702  12.1959  13.4416
    17.5947  19.0640  19.5556  20.8888  24.1965  24.5501  26.6704  26.9790
    30.5881  31.7435  32.7237  33.2065  34.6270  34.9985  37.0507  38.4992
    38.6574  39.6035

          k = 0.2000-0.5000-0.5000 (   928 PWs)   bands (ev):

   -23.4238  -7.1986  -7.1986  -6.0385   8.9844  12.0762  12.0762  13.4458
    18.9252  19.4983  19.4983  19.9403  24.6968  24.6968  25.0464  26.9779
    31.5896  32.4584  32.4584  34.8972  34.9172  34.9172  35.1955  37.1220
    37.2656  40.4152

          k = 0.3000 0.3000 0.3000 (   922 PWs)   bands (ev):

   -23.5048  -6.7324  -6.6712  -6.6712  10.2834  11.7524  11.7524  14.8098
    14.8098  16.2321  20.0065  24.3956  24.3957  25.5902  27.2403  27.2403
    29.2171  29.8845  29.8845  34.2441  35.0064  36.2228  36.2228  39.8439
    39.8439  40.5415

          k = 0.3000 0.3000 0.4000 (   931 PWs)   bands (ev):

   -23.4533  -7.0744  -6.6495  -6.6124  10.0542  11.1011  11.7002  14.9136
    15.7211  18.0495  19.0956  23.2083  25.4049  25.7184  27.0553  27.1144
    29.8393  30.3576  30.8942  33.8010  34.6520  34.8767  37.2129  38.1626
    38.7715  40.6943

          k = 0.3000 0.3000-0.5000 (   934 PWs)   bands (ev):

   -23.4333  -7.2140  -6.6263  -6.5896   9.9227  10.8736  11.7453  14.9599
    15.9045  18.6788  20.0528  21.7109  25.4992  25.9123  26.0687  27.1773
    29.9585  32.3448  32.5363  33.5361  33.9042  34.8060  34.8220  36.9938
    39.4211  41.7305

          k = 0.3000 0.4000 0.4000 (   925 PWs)   bands (ev):

   -23.4021  -7.0167  -7.0013  -6.5720   9.7593  10.9676  11.1448  15.4030
    17.4512  18.0457  18.8986  23.1662  25.5268  26.1187  26.7394  27.3826
    30.6287  30.7312  31.3011  33.2965  33.9997  35.5110  36.4126  36.7546
    38.7915  39.6206

          k = 0.3000 0.4000-0.5000 (   920 PWs)   bands (ev):

   -23.3823  -7.1473  -6.9838  -6.5496   9.5798  10.8301  11.1439  15.4867
    17.6720  18.0186  20.6360  21.6764  25.4367  25.9923  26.6393  27.2798
    30.9435  32.1572  32.9476  33.3833  33.8699  34.0992  34.3641  36.8884
    38.4543  39.1546

          k = 0.3000-0.5000-0.5000 (   920 PWs)   bands (ev):

   -23.3626  -7.1215  -7.1215  -6.5274   9.3815  10.9286  10.9286  15.5782
    17.2839  20.0368  20.8406  20.8406  24.6625  26.1034  26.1034  27.8963
    32.7014  32.7014  33.6538  33.6539  33.7062  33.7848  33.9238  34.2649
    37.6127  39.4564

          k = 0.4000 0.4000 0.4000 (   925 PWs)   bands (ev):

   -23.3513  -6.9593  -6.9388  -6.9388   9.9632  10.4333  10.4333  16.9567
    17.6336  17.6336  19.7040  24.2173  24.2173  27.1955  27.4870  27.4870
    30.9565  30.9565  31.6512  32.4434  34.6942  34.9392  34.9393  36.1208
    39.1892  39.1892

          k = 0.4000 0.4000-0.5000 (   930 PWs)   bands (ev):

   -23.3317  -7.0827  -6.9278  -6.9145   9.8720  10.1898  10.4450  16.5495
    17.6977  18.5511  21.3640  22.0030  24.5488  27.4236  27.5788  27.6575
    31.2331  32.1089  32.6547  33.0027  33.1980  33.3017  35.2218  35.6247
    38.8797  39.4565

          k = 0.4000-0.5000-0.5000 (   924 PWs)   bands (ev):

   -23.3121  -7.0576  -7.0576  -6.8970   9.7781  10.2045  10.2045  16.1298
    18.1231  20.1179  21.5984  21.5984  23.4453  27.7339  27.7339  28.3524
    31.6693  32.6862  32.6862  32.9357  33.2459  33.2459  33.6306  35.7420
    38.1389  39.8108

          k =-0.5000-0.5000-0.5000 (   912 PWs)   bands (ev):

   -23.2926  -7.0329  -7.0329  -7.0329   9.9573   9.9573   9.9573  15.6967
    20.1495  20.1495  21.8401  21.8401  21.8401  28.4991  28.4991  28.4991
    31.0185  32.5979  32.5979  32.5979  33.4076  33.4076  33.4076  36.2344
    38.3969  38.3969

     the Fermi energy is    11.1191 ev

!    total energy              =    -471.69848712 Ry
     total all-electron energy =    -17721.223216 Ry
     estimated scf accuracy    <       0.00001271 Ry
     smearing contrib. (-TS)   =      -0.00066845 Ry
     internal energy E=F+TS    =    -471.69781867 Ry

     The total energy is F=E-TS. E is the sum of the following terms:
     one-electron contribution =      -6.10380506 Ry
     hartree contribution      =       8.58982983 Ry
     xc contribution           =     -73.19317963 Ry
     ewald contribution        =     -55.21518334 Ry
     one-center paw contrib.   =    -345.77548047 Ry

     convergence has been achieved in   3 iterations

     Writing all to output data dir ./work/POSCAR.save/

     init_run     :      0.25s CPU      0.26s WALL (       1 calls)
     electrons    :      1.67s CPU      2.12s WALL (       1 calls)

     Called by init_run:
     wfcinit      :      0.08s CPU      0.09s WALL (       1 calls)
     potinit      :      0.08s CPU      0.08s WALL (       1 calls)
     hinit0       :      0.08s CPU      0.08s WALL (       1 calls)

     Called by electrons:
     c_bands      :      1.40s CPU      1.82s WALL (       4 calls)
     sum_band     :      0.16s CPU      0.16s WALL (       4 calls)
     v_of_rho     :      0.00s CPU      0.00s WALL (       4 calls)
     newd         :      0.01s CPU      0.01s WALL (       4 calls)
     PAW_pot      :      0.14s CPU      0.16s WALL (       4 calls)
     mix_rho      :      0.00s CPU      0.00s WALL (       4 calls)

     Called by c_bands:
     init_us_2    :      0.01s CPU      0.01s WALL (     504 calls)
     init_us_2:cp :      0.01s CPU      0.01s WALL (     504 calls)
     cegterg      :      1.37s CPU      1.43s WALL (     224 calls)

     Called by *egterg:
     cdiaghg      :      0.44s CPU      0.46s WALL (    1008 calls)
     h_psi        :      0.79s CPU      0.83s WALL (    1120 calls)
     s_psi        :      0.01s CPU      0.01s WALL (    1120 calls)
     g_psi        :      0.01s CPU      0.01s WALL (     840 calls)

     Called by h_psi:
     h_psi:calbec :      0.04s CPU      0.04s WALL (    1120 calls)
     vloc_psi     :      0.74s CPU      0.78s WALL (    1120 calls)
     add_vuspsi   :      0.01s CPU      0.01s WALL (    1120 calls)

     General routines
     calbec       :      0.05s CPU      0.05s WALL (    1344 calls)
     fft          :      0.06s CPU      0.06s WALL (      51 calls)
     ffts         :      0.03s CPU      0.03s WALL (       8 calls)
     fftw         :      0.79s CPU      0.83s WALL (   40286 calls)
     interpolate  :      0.03s CPU      0.03s WALL (       4 calls)

     Parallel routines

     PWSCF        :      2.05s CPU      3.07s WALL


   This run was terminated on:  22:39:52  15May2024            

=------------------------------------------------------------------------------=
   JOB DONE.
=------------------------------------------------------------------------------=
