
     Program PWSCF v.7.1 starts on 15May2024 at 22:42: 5 

     This program is part of the open-source Quantum ESPRESSO suite
     for quantum simulation of materials; please cite
         "P. Giannozzi et al., J. Phys.:Condens. Matter 21 395502 (2009);
         "P. Giannozzi et al., J. Phys.:Condens. Matter 29 465901 (2017);
         "P. Giannozzi et al., J. Chem. Phys. 152 154105 (2020);
          URL http://www.quantum-espresso.org", 
     in publications or presentations arising from this work. More details at
     http://www.quantum-espresso.org/quote

     Parallel version (MPI & OpenMP), running on      10 processor cores
     Number of MPI processes:                10
     Threads/MPI process:                     1

     MPI processes distributed on     1 nodes
     14564 MiB available memory on the printing compute node when the environment starts

     Waiting for input...
     Reading input from standard input

     Current dimensions of program PWSCF are:
     Max number of different atomic species (ntypx) = 10
     Max number of k-points (npk) =  40000
     Max angular momentum in pseudopotentials (lmaxx) =  4

     Atomic positions and unit cell read from directory:
     ./work/POSCAR.save/

     file Ce.pbe-spdn-kjpaw_psl.1.0.0.UPF: wavefunction(s)  5D renormalized
     Message from routine setup:
     using ibrav=0 with symmetry is DISCOURAGED, use correct ibrav instead

     R & G space division:  proc/nbgrp/npool/nimage =      10
     Subspace diagonalization in iterative solution of the eigenvalue problem:
     a serial algorithm will be used


     Parallelization info
     --------------------
     sticks:   dense  smooth     PW     G-vecs:    dense   smooth      PW
     Min          61      50     16                 1151      870     157
     Max          62      51     18                 1152      871     159
     Sum         613     509    169                11513     8709    1575

     Using Slab Decomposition



     bravais-lattice index     =            0
     lattice parameter (alat)  =       6.5843  a.u.
     unit-cell volume          =     285.4488 (a.u.)^3
     number of atoms/cell      =            1
     number of atomic types    =            1
     number of electrons       =        11.00
     number of Kohn-Sham states=           26
     kinetic-energy cutoff     =      37.0000  Ry
     charge density cutoff     =     179.0000  Ry
     Exchange-correlation= SLA  PW   PBX  PBC
                           (   1   4   3   4   0   0   0)

     celldm(1)=   6.584297  celldm(2)=   0.000000  celldm(3)=   0.000000
     celldm(4)=   0.000000  celldm(5)=   0.000000  celldm(6)=   0.000000

     crystal axes: (cart. coord. in units of alat)
               a(1) = (   1.000000   0.000000   0.000000 )  
               a(2) = (   0.000000   1.000000   0.000000 )  
               a(3) = (   0.000000   0.000000   1.000000 )  

     reciprocal axes: (cart. coord. in units 2 pi/alat)
               b(1) = (  1.000000  0.000000  0.000000 )  
               b(2) = (  0.000000  1.000000  0.000000 )  
               b(3) = (  0.000000  0.000000  1.000000 )  


     PseudoPot. # 1 for Ce read from file:
     ./../../../../pseudo/psl100_PBE/Ce.pbe-spdn-kjpaw_psl.1.0.0.UPF
     MD5 check sum: 1a25380276e46fcecd5a173acdad072c
     Pseudo is Projector augmented-wave + core cor, Zval = 11.0
     Generated using 'atomic' code by A. Dal Corso  v.7.2
     Shape of augmentation charge: PSQ
     Using radial grid of 1255 points,  6 beta functions with: 
                l(1) =   0
                l(2) =   0
                l(3) =   1
                l(4) =   1
                l(5) =   2
                l(6) =   2
     Q(r) pseudized with 0 coefficients 


     atomic species   valence    mass     pseudopotential
        Ce            11.00   140.11600     Ce( 1.00)

     48 Sym. Ops., with inversion, found



   Cartesian axes

     site n.     atom                  positions (alat units)
         1           Ce  tau(   1) = (   0.0000000   0.0000000   0.0000000  )

     number of k points=    91  Methfessel-Paxton smearing, width (Ry)=  0.0200
                       cart. coord. in units 2pi/alat
        k(    1) = (   0.0000000   0.5000000   0.5000000), wk =   0.0219780
        k(    2) = (   0.0500000   0.5000000   0.5000000), wk =   0.0219780
        k(    3) = (   0.1000000   0.5000000   0.5000000), wk =   0.0219780
        k(    4) = (   0.1500000   0.5000000   0.5000000), wk =   0.0219780
        k(    5) = (   0.2000000   0.5000000   0.5000000), wk =   0.0219780
        k(    6) = (   0.2500000   0.5000000   0.5000000), wk =   0.0219780
        k(    7) = (   0.3000000   0.5000000   0.5000000), wk =   0.0219780
        k(    8) = (   0.3500000   0.5000000   0.5000000), wk =   0.0219780
        k(    9) = (   0.4000000   0.5000000   0.5000000), wk =   0.0219780
        k(   10) = (   0.4500000   0.5000000   0.5000000), wk =   0.0219780
        k(   11) = (   0.5000000   0.5000000   0.5000000), wk =   0.0219780
        k(   12) = (   0.4750000   0.4750000   0.4750000), wk =   0.0219780
        k(   13) = (   0.4500000   0.4500000   0.4500000), wk =   0.0219780
        k(   14) = (   0.4250000   0.4250000   0.4250000), wk =   0.0219780
        k(   15) = (   0.4000000   0.4000000   0.4000000), wk =   0.0219780
        k(   16) = (   0.3750000   0.3750000   0.3750000), wk =   0.0219780
        k(   17) = (   0.3500000   0.3500000   0.3500000), wk =   0.0219780
        k(   18) = (   0.3250000   0.3250000   0.3250000), wk =   0.0219780
        k(   19) = (   0.3000000   0.3000000   0.3000000), wk =   0.0219780
        k(   20) = (   0.2750000   0.2750000   0.2750000), wk =   0.0219780
        k(   21) = (   0.2500000   0.2500000   0.2500000), wk =   0.0219780
        k(   22) = (   0.2250000   0.2250000   0.2250000), wk =   0.0219780
        k(   23) = (   0.2000000   0.2000000   0.2000000), wk =   0.0219780
        k(   24) = (   0.1750000   0.1750000   0.1750000), wk =   0.0219780
        k(   25) = (   0.1500000   0.1500000   0.1500000), wk =   0.0219780
        k(   26) = (   0.1250000   0.1250000   0.1250000), wk =   0.0219780
        k(   27) = (   0.1000000   0.1000000   0.1000000), wk =   0.0219780
        k(   28) = (   0.0750000   0.0750000   0.0750000), wk =   0.0219780
        k(   29) = (   0.0500000   0.0500000   0.0500000), wk =   0.0219780
        k(   30) = (   0.0250000   0.0250000   0.0250000), wk =   0.0219780
        k(   31) = (   0.0000000   0.0000000   0.0000000), wk =   0.0219780
        k(   32) = (   0.0500000   0.0000000   0.0000000), wk =   0.0219780
        k(   33) = (   0.1000000   0.0000000   0.0000000), wk =   0.0219780
        k(   34) = (   0.1500000   0.0000000   0.0000000), wk =   0.0219780
        k(   35) = (   0.2000000   0.0000000   0.0000000), wk =   0.0219780
        k(   36) = (   0.2500000   0.0000000   0.0000000), wk =   0.0219780
        k(   37) = (   0.3000000   0.0000000   0.0000000), wk =   0.0219780
        k(   38) = (   0.3500000   0.0000000   0.0000000), wk =   0.0219780
        k(   39) = (   0.4000000   0.0000000   0.0000000), wk =   0.0219780
        k(   40) = (   0.4500000   0.0000000   0.0000000), wk =   0.0219780
        k(   41) = (   0.5000000   0.0000000   0.0000000), wk =   0.0219780
        k(   42) = (   0.5000000   0.0500000   0.0000000), wk =   0.0219780
        k(   43) = (   0.5000000   0.1000000   0.0000000), wk =   0.0219780
        k(   44) = (   0.5000000   0.1500000   0.0000000), wk =   0.0219780
        k(   45) = (   0.5000000   0.2000000   0.0000000), wk =   0.0219780
        k(   46) = (   0.5000000   0.2500000   0.0000000), wk =   0.0219780
        k(   47) = (   0.5000000   0.3000000   0.0000000), wk =   0.0219780
        k(   48) = (   0.5000000   0.3500000   0.0000000), wk =   0.0219780
        k(   49) = (   0.5000000   0.4000000   0.0000000), wk =   0.0219780
        k(   50) = (   0.5000000   0.4500000   0.0000000), wk =   0.0219780
        k(   51) = (   0.5000000   0.5000000   0.0000000), wk =   0.0219780
        k(   52) = (   0.4750000   0.4750000   0.0000000), wk =   0.0219780
        k(   53) = (   0.4500000   0.4500000   0.0000000), wk =   0.0219780
        k(   54) = (   0.4250000   0.4250000   0.0000000), wk =   0.0219780
        k(   55) = (   0.4000000   0.4000000   0.0000000), wk =   0.0219780
        k(   56) = (   0.3750000   0.3750000   0.0000000), wk =   0.0219780
        k(   57) = (   0.3500000   0.3500000   0.0000000), wk =   0.0219780
        k(   58) = (   0.3250000   0.3250000   0.0000000), wk =   0.0219780
        k(   59) = (   0.3000000   0.3000000   0.0000000), wk =   0.0219780
        k(   60) = (   0.2750000   0.2750000   0.0000000), wk =   0.0219780
        k(   61) = (   0.2500000   0.2500000   0.0000000), wk =   0.0219780
        k(   62) = (   0.2250000   0.2250000   0.0000000), wk =   0.0219780
        k(   63) = (   0.2000000   0.2000000   0.0000000), wk =   0.0219780
        k(   64) = (   0.1750000   0.1750000   0.0000000), wk =   0.0219780
        k(   65) = (   0.1500000   0.1500000   0.0000000), wk =   0.0219780
        k(   66) = (   0.1250000   0.1250000   0.0000000), wk =   0.0219780
        k(   67) = (   0.1000000   0.1000000   0.0000000), wk =   0.0219780
        k(   68) = (   0.0750000   0.0750000   0.0000000), wk =   0.0219780
        k(   69) = (   0.0500000   0.0500000   0.0000000), wk =   0.0219780
        k(   70) = (   0.0250000   0.0250000   0.0000000), wk =   0.0219780
        k(   71) = (   0.0000000   0.0000000   0.0000000), wk =   0.0219780
        k(   72) = (   0.0250000   0.0250000   0.0250000), wk =   0.0219780
        k(   73) = (   0.0500000   0.0500000   0.0500000), wk =   0.0219780
        k(   74) = (   0.0750000   0.0750000   0.0750000), wk =   0.0219780
        k(   75) = (   0.1000000   0.1000000   0.1000000), wk =   0.0219780
        k(   76) = (   0.1250000   0.1250000   0.1250000), wk =   0.0219780
        k(   77) = (   0.1500000   0.1500000   0.1500000), wk =   0.0219780
        k(   78) = (   0.1750000   0.1750000   0.1750000), wk =   0.0219780
        k(   79) = (   0.2000000   0.2000000   0.2000000), wk =   0.0219780
        k(   80) = (   0.2250000   0.2250000   0.2250000), wk =   0.0219780
        k(   81) = (   0.2500000   0.2500000   0.2500000), wk =   0.0219780
        k(   82) = (   0.2750000   0.2750000   0.2750000), wk =   0.0219780
        k(   83) = (   0.3000000   0.3000000   0.3000000), wk =   0.0219780
        k(   84) = (   0.3250000   0.3250000   0.3250000), wk =   0.0219780
        k(   85) = (   0.3500000   0.3500000   0.3500000), wk =   0.0219780
        k(   86) = (   0.3750000   0.3750000   0.3750000), wk =   0.0219780
        k(   87) = (   0.4000000   0.4000000   0.4000000), wk =   0.0219780
        k(   88) = (   0.4250000   0.4250000   0.4250000), wk =   0.0219780
        k(   89) = (   0.4500000   0.4500000   0.4500000), wk =   0.0219780
        k(   90) = (   0.4750000   0.4750000   0.4750000), wk =   0.0219780
        k(   91) = (   0.5000000   0.5000000   0.5000000), wk =   0.0219780

     Dense  grid:    11513 G-vectors     FFT dimensions: (  30,  30,  30)

     Smooth grid:     8709 G-vectors     FFT dimensions: (  25,  25,  25)

     Estimated max dynamical RAM per process >       4.78 MB

     Estimated total dynamical RAM >      47.77 MB

     The potential is recalculated from file :
     ./work/POSCAR.save/charge-density

     Starting wfcs are   13 randomized atomic wfcs +   13 random wfcs
     Checking if some PAW data can be deallocated... 

     Band Structure Calculation
     Davidson diagonalization with overlap

     ethr =  6.64E-07,  avg # of iterations = 18.8

     total cpu time spent up to now is        4.1 secs

     End of band structure calculation

          k = 0.0000 0.5000 0.5000 (  1092 PWs)   bands (ev):

   -25.8583  -9.2474  -9.2474  -8.0787   7.1315   9.2602  12.1294  12.1294
    13.4466  13.4466  16.1899  19.2875  20.3555  20.4636  20.4636  20.8112
    25.8048  28.4156  28.4156  31.3875  31.9571  31.9571  32.3856  32.4594
    36.6913  36.6913

          k = 0.0500 0.5000 0.5000 (  1076 PWs)   bands (ev):

   -25.8557  -9.2438  -9.2438  -8.1061   7.1522   9.3623  11.7879  11.7879
    13.8089  13.8089  16.1953  18.8490  20.3567  20.5200  20.5200  21.2171
    25.9114  28.4308  28.4308  31.2849  31.7557  31.7557  32.2726  32.4848
    36.8021  36.9639

          k = 0.1000 0.5000 0.5000 (  1076 PWs)   bands (ev):

   -25.8483  -9.2334  -9.2334  -8.1851   7.2134   9.6644  11.1784  11.1784
    14.4759  14.4759  16.2109  18.0541  20.3572  20.6912  20.6912  21.8994
    26.2443  28.4751  28.4751  30.9937  31.2623  31.2623  31.9712  32.5605
    35.0038  36.7848

          k = 0.1500 0.5000 0.5000 (  1084 PWs)   bands (ev):

   -25.8366  -9.2172  -9.2172  -8.3056   7.3128  10.1551  10.5580  10.5580
    15.1769  15.1769  16.2353  17.2187  20.3480  20.9817  20.9817  22.5147
    26.8269  28.5453  28.5453  30.5448  30.6566  30.6566  31.5610  32.6847
    33.2008  36.1932

          k = 0.2000 0.5000 0.5000 (  1076 PWs)   bands (ev):

   -25.8219  -9.1966  -9.1966  -8.4535   7.4460   9.9833   9.9833  10.8172
    15.8368  15.8368  16.2666  16.4142  20.3114  21.3926  21.3926  22.9907
    27.6515  28.6343  28.6343  29.9201  30.0586  30.0586  31.1150  31.5821
    32.8540  35.6224

          k = 0.2500 0.5000 0.5000 (  1084 PWs)   bands (ev):

   -25.8055  -9.1736  -9.1736  -8.6127   7.6057   9.4756   9.4756  11.6296
    15.6703  16.3017  16.4174  16.4174  20.2176  21.9109  21.9109  23.3372
    28.6596  28.7250  28.7250  28.9610  29.5496  29.5496  30.4135  30.6830
    33.0625  35.1376

          k = 0.3000 0.5000 0.5000 (  1084 PWs)   bands (ev):

   -25.7889  -9.1504  -9.1504  -8.7673   7.7811   9.0470   9.0470  12.5678
    15.0084  16.3374  16.8984  16.8984  20.0199  22.4981  22.4981  23.5881
    27.7320  28.7592  28.7592  29.2324  29.2324  29.7304  29.7546  30.2980
    33.3001  34.8079

          k = 0.3500 0.5000 0.5000 (  1076 PWs)   bands (ev):

   -25.7739  -9.1294  -9.1294  -8.9030   7.9565   8.7057   8.7057  13.6027
    14.4505  16.3700  17.2722  17.2722  19.6566  23.0832  23.0832  23.7697
    26.5966  28.6738  28.6738  29.2067  29.2067  29.2750  29.9808  30.7899
    33.5497  34.7514

          k = 0.4000 0.5000 0.5000 (  1072 PWs)   bands (ev):

   -25.7620  -9.1125  -9.1125  -9.0084   8.1105   8.4578   8.4578  14.0212
    14.6945  16.3962  17.5386  17.5386  19.0765  23.5736  23.5736  23.8958
    25.7447  28.6280  28.6280  28.9554  29.3253  29.3253  29.7453  31.5478
    33.7829  35.1618

          k = 0.4500 0.5000 0.5000 (  1072 PWs)   bands (ev):

   -25.7543  -9.1016  -9.1016  -9.0751   8.2181   8.3074   8.3074  13.7478
    15.7643  16.4132  17.6984  17.6984  18.3094  23.8894  23.8894  23.9710
    25.2398  28.6653  28.6653  28.7608  29.4744  29.4744  29.6006  31.9099
    33.9565  34.3734

          k = 0.5000 0.5000 0.5000 (  1064 PWs)   bands (ev):

   -25.7516  -9.0979  -9.0979  -9.0979   8.2570   8.2570   8.2570  13.6535
    16.4191  16.4191  17.7517  17.7517  17.7517  23.9961  23.9961  23.9961
    25.0759  28.6952  28.6952  28.6952  29.5520  29.5520  29.5520  32.0008
    34.0222  34.0222

          k = 0.4750 0.4750 0.4750 (  1070 PWs)   bands (ev):

   -25.7536  -9.0947  -9.0937  -9.0937   8.2527   8.2822   8.2822  13.7245
    16.1256  16.1256  17.5966  18.0463  18.0463  23.9362  23.9362  23.9371
    25.1994  28.6159  28.6159  28.8281  29.4113  29.5900  29.5900  31.9416
    34.1753  34.1753

          k = 0.4500 0.4500 0.4500 (  1070 PWs)   bands (ev):

   -25.7596  -9.0850  -9.0813  -9.0813   8.2425   8.3575   8.3575  13.9338
    15.5587  15.5587  17.1709  18.6124  18.6124  23.7480  23.7757  23.7757
    25.5661  28.3258  28.3258  29.0436  29.1986  29.7833  29.7833  31.7918
    34.5729  34.5729

          k = 0.4250 0.4250 0.4250 (  1070 PWs)   bands (ev):

   -25.7694  -9.0688  -9.0609  -9.0609   8.2332   8.4821   8.4821  14.2707
    14.9367  14.9367  16.5606  19.2179  19.2179  23.4528  23.5615  23.5615
    26.1174  27.8515  27.8515  28.5476  29.7321  30.1495  30.1495  31.6268
    34.8949  34.8949

          k = 0.4000 0.4000 0.4000 (  1058 PWs)   bands (ev):

   -25.7828  -9.0460  -9.0326  -9.0326   8.2327   8.6543   8.6543  14.3105
    14.3105  14.7199  15.8478  19.7817  19.7817  23.1025  23.3556  23.3556
    26.7706  27.2890  27.2890  27.9963  30.2712  30.6105  30.6105  31.6051
    34.6248  34.6248

          k = 0.3750 0.3750 0.3750 (  1070 PWs)   bands (ev):

   -25.7994  -9.0167  -8.9968  -8.9968   8.2466   8.8715   8.8715  13.6973
    13.6973  15.0737  15.2836  20.2319  20.2319  22.7379  23.2289  23.2289
    26.7145  26.7145  27.4313  27.4669  30.4991  31.0751  31.0751  32.0388
    34.3803  34.3803

          k = 0.3500 0.3500 0.3500 (  1076 PWs)   bands (ev):

   -25.8190  -8.9809  -8.9542  -8.9542   8.2761   9.1295   9.1295  13.1069
    13.1069  14.3315  15.8929  20.4898  20.4898  22.3901  23.2384  23.2384
    26.1994  26.1994  26.8747  28.1719  30.4375  31.4419  31.4419  32.8949
    34.3730  34.3730

          k = 0.3250 0.3250 0.3250 (  1076 PWs)   bands (ev):

   -25.8409  -8.9385  -8.9052  -8.9052   8.3151   9.4206   9.4206  12.5493
    12.5493  13.6154  16.5645  20.5284  20.5284  22.0885  23.3388  23.3388
    25.8483  25.8483  26.3393  28.8598  30.3146  31.6409  31.6409  33.9246
    34.6414  34.6414

          k = 0.3000 0.3000 0.3000 (  1072 PWs)   bands (ev):

   -25.8646  -8.8899  -8.8509  -8.8509   8.3476   9.7289   9.7289  12.0411
    12.0411  12.9735  17.2483  20.4060  20.4060  21.8727  23.3415  23.3415
    25.8137  25.8137  25.8323  29.4695  30.2440  31.7005  31.7005  34.9528
    35.0443  35.0443

          k = 0.2750 0.2750 0.2750 (  1081 PWs)   bands (ev):

   -25.8897  -8.8357  -8.7921  -8.7921   8.3451  10.0128  10.0128  11.6230
    11.6230  12.4487  17.8801  20.1994  20.1994  21.8054  23.1310  23.1310
    25.3584  26.1477  26.1477  29.7233  30.4820  31.6987  31.6987  34.7656
    35.0722  35.0722

          k = 0.2500 0.2500 0.2500 (  1069 PWs)   bands (ev):

   -25.9154  -8.7763  -8.7301  -8.7301   8.2699  10.1545  10.1545  11.4109
    11.4109  12.0880  18.3674  19.9594  19.9594  21.9777  22.7921  22.7921
    24.9207  26.7206  26.7206  29.5747  30.9747  31.6878  31.6878  33.7445
    34.3000  34.3000

          k = 0.2250 0.2250 0.2250 (  1075 PWs)   bands (ev):

   -25.9412  -8.7130  -8.6663  -8.6663   8.0930  10.0213  10.0213  11.5337
    11.5337  11.9261  18.6381  19.7132  19.7132  22.4282  22.4282  22.4588
    24.5211  27.3929  27.3929  29.1876  31.2913  31.6760  31.6760  33.1683
    33.2801  33.2801

          k = 0.2000 0.2000 0.2000 (  1084 PWs)   bands (ev):

   -25.9664  -8.6471  -8.6023  -8.6023   7.8179   9.7242   9.7242  11.8749
    11.8749  11.9622  18.7146  19.4753  19.4753  22.0961  22.0961  23.2220
    24.1611  28.0433  28.0433  28.5063  31.2734  31.5669  31.5669  32.4536
    32.4536  33.3131

          k = 0.1750 0.1750 0.1750 (  1084 PWs)   bands (ev):

   -25.9903  -8.5804  -8.5396  -8.5396   7.4798   9.3954   9.3954  12.1604
    12.2944  12.2944  18.6784  19.2532  19.2532  21.8277  21.8277  23.8418
    24.1780  27.5840  28.4438  28.4438  31.2204  31.2274  31.2274  32.2259
    32.2259  33.8389

          k = 0.1500 0.1500 0.1500 (  1084 PWs)   bands (ev):

   -26.0125  -8.5150  -8.4803  -8.4803   7.1215   9.0831   9.0831  12.4734
    12.7332  12.7332  18.5968  19.0513  19.0513  21.6455  21.6455  23.5639
    25.2326  26.5777  28.2181  28.2181  31.2765  31.3083  31.3083  32.3347
    32.3347  34.4655

          k = 0.1250 0.1250 0.1250 (  1090 PWs)   bands (ev):

   -26.0322  -8.4534  -8.4260  -8.4260   6.7776   8.8049   8.8049  12.8573
    13.1596  13.1596  18.5103  18.8724  18.8724  21.5678  21.5678  23.3280
    25.4407  26.4769  27.4724  27.4724  31.4370  31.9357  31.9357  32.5542
    32.5542  35.0986

          k = 0.1000 0.1000 0.1000 (  1087 PWs)   bands (ev):

   -26.0491  -8.3981  -8.3786  -8.3786   6.4719   8.5696   8.5696  13.2715
    13.5484  13.5484  18.4418  18.7190  18.7190  21.6098  21.6098  23.1344
    24.5052  26.5653  26.5653  27.5820  31.7018  32.7968  32.7968  32.8435
    32.8435  35.6845

          k = 0.0750 0.0750 0.0750 (  1087 PWs)   bands (ev):

   -26.0627  -8.3517  -8.3398  -8.3398   6.2204   8.3822   8.3822  13.6738
    13.8771  13.8771  18.4040  18.5942  18.5942  21.7819  21.7819  22.9836
    23.6476  25.6501  25.6501  28.6335  32.1060  33.1892  33.1892  33.7559
    33.7559  36.1333

          k = 0.0500 0.0500 0.0500 (  1069 PWs)   bands (ev):

   -26.0727  -8.3165  -8.3109  -8.3109   6.0341   8.2462   8.2462  14.0169
    14.1262  14.1262  18.3992  18.5016  18.5016  22.0846  22.0846  22.8758
    22.9504  24.7894  24.7894  29.4717  32.7208  33.5803  33.5803  34.7540
    34.7540  36.0608

          k = 0.0250 0.0250 0.0250 (  1060 PWs)   bands (ev):

   -26.0787  -8.2946  -8.2931  -8.2931   5.9196   8.1636   8.1636  14.2505
    14.2813  14.2813  18.4148  18.4444  18.4444  22.4838  22.4911  22.4911
    22.8110  24.0391  24.0391  29.9784  33.5593  33.9824  33.9824  35.3559
    35.3559  35.6548

          k = 0.0000 0.0000 0.0000 (  1045 PWs)   bands (ev):

   -26.0808  -8.2871  -8.2871  -8.2871   5.8811   8.1360   8.1360  14.3339
    14.3339  14.3339  18.4250  18.4250  18.4250  22.3176  22.7894  22.7894
    22.7894  23.6250  23.6250  30.1409  34.2176  34.2176  34.2176  35.1279
    35.1279  35.1279

          k = 0.0500 0.0000 0.0000 (  1069 PWs)   bands (ev):

   -26.0781  -8.3181  -8.2846  -8.2846   5.9319   8.1501   8.1956  14.2088
    14.2088  14.3412  18.1936  18.5618  18.5618  22.0902  22.5149  22.8695
    22.8695  23.7489  24.3893  29.9417  33.5020  33.5020  34.4895  34.7039
    35.2147  35.8635

          k = 0.1000 0.0000 0.0000 (  1077 PWs)   bands (ev):

   -26.0702  -8.4065  -8.2771  -8.2771   6.0764   8.1914   8.3742  13.8866
    13.8866  14.3625  17.6485  18.9128  18.9128  21.1611  22.8619  23.1134
    23.1134  24.2149  25.5139  29.4617  32.5305  32.5305  33.2303  34.0880
    35.1883  36.7097

          k = 0.1500 0.0000 0.0000 (  1085 PWs)   bands (ev):

   -26.0579  -8.5411  -8.2654  -8.2654   6.2935   8.2576   8.6659  13.4661
    13.4661  14.3962  17.0099  19.3646  19.3646  20.2846  23.0893  23.5265
    23.5265  25.0633  26.7159  28.8771  31.4268  31.6171  31.6171  33.2455
    36.1384  36.7718

          k = 0.2000 0.0000 0.0000 (  1089 PWs)   bands (ev):

   -26.0423  -8.7054  -8.2505  -8.2505   6.5583   8.3440   9.0497  13.0238
    13.0238  14.4393  16.4149  19.4864  19.8284  19.8284  23.2115  24.1013
    24.1013  26.1161  27.9684  28.2893  29.6865  30.8070  30.8070  32.4851
    36.8100  37.1198

          k = 0.2500 0.0000 0.0000 (  1097 PWs)   bands (ev):

   -26.0249  -8.8812  -8.2341  -8.2341   6.8490   8.4443   9.4764  12.6059
    12.6059  14.4881  15.9594  18.7791  20.2573  20.2573  23.2257  24.7961
    24.7961  27.1774  27.7477  28.1254  29.2556  30.1469  30.1469  31.8968
    36.8463  37.1837

          k = 0.3000 0.0000 0.0000 (  1089 PWs)   bands (ev):

   -26.0074  -9.0511  -8.2174  -8.2174   7.1494   8.5499   9.8641  12.2396
    12.2396  14.5380  15.7368  18.1741  20.6345  20.6345  23.0147  25.5113
    25.5113  26.7946  27.2791  28.1241  29.7243  29.7243  30.5575  31.6810
    36.8690  37.2240

          k = 0.3500 0.0000 0.0000 (  1089 PWs)   bands (ev):

   -25.9915  -9.1998  -8.2023  -8.2023   7.4433   8.6504  10.1229  11.9416
    11.9416  14.5840  15.8293  17.6838  20.9529  20.9529  22.3940  26.0563
    26.0698  26.0698  26.8998  28.4897  29.6964  29.6964  31.8412  32.1456
    36.8593  37.1394

          k = 0.4000 0.0000 0.0000 (  1092 PWs)   bands (ev):

   -25.9789  -9.3149  -8.1903  -8.1903   7.7066   8.7340  10.2184  11.7224
    11.7224  14.6212  16.2460  17.3210  21.2023  21.2023  21.4159  25.8050
    26.3239  26.3239  26.6212  28.4120  30.1832  30.1832  33.0433  33.2454
    36.0076  36.0076

          k = 0.4500 0.0000 0.0000 (  1092 PWs)   bands (ev):

   -25.9707  -9.3875  -8.1826  -8.1826   7.8995   8.7897  10.2082  11.5885
    11.5885  14.6454  16.8443  17.0975  20.4220  21.3651  21.3651  25.7870
    26.3598  26.3598  26.4508  28.2267  31.0151  31.0151  34.0227  34.6508
    34.6508  34.6618

          k = 0.5000 0.0000 0.0000 (  1108 PWs)   bands (ev):

   -25.9679  -9.4123  -8.1799  -8.1799   7.9724   8.8093  10.1892  11.5434
    11.5434  14.6538  17.0220  17.1943  19.9346  21.4222  21.4222  25.8040
    26.3498  26.3498  26.3934  28.1425  31.5678  31.5678  33.9362  33.9362
    34.4505  35.9978

          k = 0.5000 0.0500 0.0000 (  1096 PWs)   bands (ev):

   -25.9653  -9.4084  -8.2089  -8.1775   8.0340   8.8619  10.0115  11.5559
    11.6712  14.5554  17.1427  17.1850  19.9477  21.2257  21.6000  25.4744
    25.9319  26.0866  27.2885  28.6097  31.3996  31.5779  33.5674  33.9742
    33.9909  36.2327

          k = 0.5000 0.1000 0.0000 (  1092 PWs)   bands (ev):

   -25.9576  -9.3969  -8.2922  -8.1704   8.1928   9.0398   9.6122  11.5927
    11.9335  14.2910  17.1528  17.4860  19.9837  20.7613  22.1024  24.6173
    25.2000  26.8082  28.1983  29.4562  30.9464  31.6074  32.8050  32.9310
    34.1592  36.3905

          k = 0.5000 0.1500 0.0000 (  1094 PWs)   bands (ev):

   -25.9456  -9.3791  -8.4190  -8.1593   8.3854   9.1423   9.3883  11.6512
    12.2114  13.9275  17.0850  17.9986  20.0315  20.2274  22.8627  23.8155
    24.5115  27.7457  29.0668  30.1372  30.2481  31.4920  31.6541  32.5654
    34.4518  36.5095

          k = 0.5000 0.2000 0.0000 (  1092 PWs)   bands (ev):

   -25.9305  -9.3564  -8.5743  -8.1453   8.5672   8.6710   9.9231  11.7274
    12.4739  13.5291  16.9637  18.6011  19.7550  20.0661  23.0825  23.8167
    23.9938  28.3086  29.5964  29.8540  30.1665  30.5368  31.7143  32.9600
    34.8787  36.6406

          k = 0.5000 0.2500 0.0000 (  1090 PWs)   bands (ev):

   -25.9136  -9.3310  -8.7411  -8.1297   8.2343   8.7350  10.6064  11.8153
    12.7180  13.1420  16.7793  19.1960  19.4164  20.0442  22.4307  23.7598
    24.9176  27.1521  29.7360  29.7530  30.5240  30.6172  31.7827  33.9021
    35.4325  36.7277

          k = 0.5000 0.3000 0.0000 (  1086 PWs)   bands (ev):

   -25.8966  -9.3055  -8.9027  -8.1140   7.8539   8.8927  11.3767  11.9071
    12.7966  12.9427  16.5531  19.2387  19.6928  19.9249  21.8725  23.8989
    25.6007  26.1340  29.2378  29.3048  31.0587  31.8532  31.8759  34.9380
    36.0649  36.3718

          k = 0.5000 0.3500 0.0000 (  1088 PWs)   bands (ev):

   -25.8812  -9.2822  -9.0444  -8.0998   7.5449   9.0360  11.9938  12.1553
    12.5125  13.1417  16.3412  19.2207  19.7227  20.0518  21.4203  24.0646
    24.3797  27.4438  28.8138  28.9243  31.4597  31.9185  33.2659  35.1894
    35.8015  36.5080

          k = 0.5000 0.4000 0.0000 (  1086 PWs)   bands (ev):

   -25.8689  -9.2635  -9.1543  -8.0885   7.3174   9.1539  12.0654  12.3020
    12.8344  13.3027  16.2089  19.3719  19.5063  20.2863  21.0861  22.6374
    25.0262  28.5298  28.6445  28.8285  31.7381  31.9711  33.8846  34.6803
    35.0373  36.3426

          k = 0.5000 0.4500 0.0000 (  1074 PWs)   bands (ev):

   -25.8610  -9.2515  -9.2236  -8.0812   7.1783   9.2325  12.1128  12.1729
    13.2903  13.4091  16.1797  19.3461  19.7426  20.4199  20.8806  21.3935
    25.5844  28.4194  28.4734  30.2589  31.9026  32.0021  32.8659  33.4992
    35.9923  36.6109

          k = 0.5000 0.5000 0.0000 (  1092 PWs)   bands (ev):

   -25.8583  -9.2474  -9.2474  -8.0787   7.1315   9.2602  12.1294  12.1294
    13.4466  13.4466  16.1899  19.2875  20.3555  20.4636  20.4636  20.8112
    25.8048  28.4156  28.4156  31.3875  31.9571  31.9571  32.3856  32.4594
    36.6913  36.6913

          k = 0.4750 0.4750 0.0000 (  1079 PWs)   bands (ev):

   -25.8597  -9.2428  -9.2421  -8.0799   7.1549   9.2463  12.1329  12.1393
    13.3955  13.4012  16.1820  19.3122  19.8614  20.5541  20.8460  21.0110
    25.7000  28.2484  28.6057  30.7576  31.4748  32.5717  32.6657  32.8705
    36.4527  36.4848

          k = 0.4500 0.4500 0.0000 (  1081 PWs)   bands (ev):

   -25.8638  -9.2292  -9.2263  -8.0837   7.2242   9.2049  12.1437  12.1691
    13.2453  13.2685  16.1672  19.2156  19.5636  20.8128  20.9494  21.6280
    25.4699  27.8261  29.0980  29.9098  30.8336  33.2034  33.3616  33.5171
    35.9027  35.9511

          k = 0.4250 0.4250 0.0000 (  1089 PWs)   bands (ev):

   -25.8705  -9.2068  -9.2003  -8.0899   7.3365   9.1383  12.1628  12.2183
    13.0065  13.0582  16.1642  18.8230  19.6823  21.1192  21.2089  22.2341
    25.2548  27.2808  29.0556  29.7756  30.1889  33.9323  34.0734  34.1649
    35.2325  35.2342

          k = 0.4000 0.4000 0.0000 (  1085 PWs)   bands (ev):

   -25.8796  -9.1754  -9.1645  -8.0984   7.4859   9.0508  12.1920  12.2868
    12.6959  12.7851  16.1882  18.4570  19.8758  21.3510  21.7058  22.7851
    25.1689  26.7004  28.2138  29.5504  30.5688  34.4134  34.4311  34.6016
    34.7926  34.8619

          k = 0.3750 0.3750 0.0000 (  1083 PWs)   bands (ev):

   -25.8910  -9.1356  -9.1197  -8.1089   7.6608   8.9508  12.2332  12.3334
    12.3736  12.4676  16.2457  18.1630  20.0669  21.6380  22.2670  23.2340
    25.3028  26.1368  27.3949  28.9212  31.4372  33.6008  33.7095  34.8443
    35.3745  35.6919

          k = 0.3500 0.3500 0.0000 (  1089 PWs)   bands (ev):

   -25.9043  -9.0876  -9.0666  -8.1212   7.8369   8.8565  11.9381  12.1283
    12.2885  12.4781  16.3370  17.9448  20.2147  21.9681  22.8468  23.5893
    25.6365  25.6769  26.6115  28.3034  32.2710  32.8647  32.9516  34.8221
    35.8669  36.5200

          k = 0.3250 0.3250 0.0000 (  1091 PWs)   bands (ev):

   -25.9192  -9.0321  -9.0062  -8.1351   7.9630   8.8073  11.5261  11.7954
    12.3600  12.5991  16.4595  17.7986  20.2955  22.3181  23.3523  23.9341
    25.2878  25.8870  26.2145  27.6992  31.8597  32.1960  33.4420  34.6486
    36.0213  36.2042

          k = 0.3000 0.3000 0.0000 (  1087 PWs)   bands (ev):

   -25.9354  -8.9698  -8.9399  -8.1501   7.9711   8.8496  11.1102  11.5064
    12.4495  12.7351  16.6094  17.7164  20.3119  22.6318  23.5747  24.3349
    25.2761  25.2914  26.8167  27.1107  31.1139  31.4591  34.4107  34.4242
    35.0613  36.3269

          k = 0.2750 0.2750 0.0000 (  1093 PWs)   bands (ev):

   -25.9524  -8.9017  -8.8689  -8.1660   7.8575   8.9499  10.7004  11.3119
    12.5583  12.8845  16.7826  17.6878  20.2876  22.7719  23.4318  24.7979
    24.9149  25.7130  26.5406  27.3912  30.4665  30.7622  34.0239  34.1536
    35.4509  36.2443

          k = 0.2500 0.2500 0.0000 (  1103 PWs)   bands (ev):

   -25.9698  -8.8291  -8.7949  -8.1824   7.6716   9.0122  10.3044  11.2697
    12.6874  13.0448  16.9745  17.7009  20.2542  22.5729  23.1423  24.9673
    25.2774  25.9918  26.2973  27.8131  30.0505  30.1478  33.0210  33.9004
    36.0300  36.3545

          k = 0.2250 0.2250 0.0000 (  1083 PWs)   bands (ev):

   -25.9872  -8.7535  -8.7194  -8.1986   7.4472   8.9819   9.9286  11.4084
    12.8369  13.2136  17.1801  17.7431  20.2412  22.1101  22.8407  25.3560
    25.4680  25.6575  26.8115  27.9918  29.7198  29.9661  32.1274  33.6648
    35.7568  36.5232

          k = 0.2000 0.2000 0.0000 (  1077 PWs)   bands (ev):

   -26.0042  -8.6768  -8.6446  -8.2146   7.2025   8.8743   9.5783  11.6991
    13.0062  13.3873  17.3929  17.8022  20.2733  21.5498  22.5735  24.9735
    25.7333  25.9121  27.0062  28.1797  29.6879  29.8245  31.6879  33.4556
    35.4703  36.2529

          k = 0.1750 0.1750 0.0000 (  1081 PWs)   bands (ev):

   -26.0203  -8.6010  -8.5722  -8.2298   6.9509   8.7314   9.2580  12.0871
    13.1932  13.5619  17.6054  17.8687  20.3688  20.9728  22.3612  24.5132
    25.4314  26.5510  26.7784  28.6077  29.1999  30.1423  31.9743  33.2809
    35.1953  36.0073

          k = 0.1500 0.1500 0.0000 (  1081 PWs)   bands (ev):

   -26.0351  -8.5284  -8.5042  -8.2438   6.7046   8.5851   8.9719  12.5247
    13.3947  13.7326  17.8088  17.9383  20.4132  20.5392  22.2170  24.0928
    24.9163  26.3167  27.2332  28.1874  29.4118  30.8900  32.5939  33.1502
    34.9452  35.7915

          k = 0.1250 0.1250 0.0000 (  1081 PWs)   bands (ev):

   -26.0483  -8.4614  -8.4425  -8.2564   6.4752   8.4519   8.7234  12.9748
    13.6050  13.8937  17.9933  18.0128  19.8897  20.7885  22.1506  23.7189
    24.3282  25.7780  27.2678  27.9302  30.2084  31.7736  33.0765  33.3132
    34.7273  35.6082

          k = 0.1000 0.1000 0.0000 (  1077 PWs)   bands (ev):

   -26.0596  -8.4024  -8.3892  -8.2671   6.2730   8.3394   8.5157  13.4050
    13.8154  14.0389  18.0976  18.1501  19.4177  21.1149  22.1683  23.3984
    23.7386  25.2284  26.3607  28.6097  31.0829  32.7276  33.0808  34.0597
    34.5457  35.4599

          k = 0.0750 0.0750 0.0000 (  1075 PWs)   bands (ev):

   -26.0687  -8.3537  -8.3457  -8.2757   6.1066   8.2507   8.3512  13.7836
    14.0129  14.1616  18.1963  18.2727  19.0140  21.5127  22.2707  23.1387
    23.1936  24.6990  25.5015  29.2262  31.9921  33.1953  33.7208  34.4029
    34.7953  35.3514

          k = 0.0500 0.0500 0.0000 (  1075 PWs)   bands (ev):

   -26.0754  -8.3173  -8.3136  -8.2820   5.9829   8.1870   8.2321  14.0801
    14.1795  14.2551  18.3018  18.3586  18.6989  21.9722  22.4478  22.7394
    22.9469  24.2135  24.7089  29.7200  32.9006  33.4589  34.3002  34.7006
    35.3211  35.4280

          k = 0.0250 0.0250 0.0000 (  1053 PWs)   bands (ev):

   -26.0794  -8.2948  -8.2938  -8.2858   5.9068   8.1488   8.1601  14.2690
    14.2932  14.3139  18.3897  18.4087  18.4957  22.4230  22.4724  22.6636
    22.8292  23.8125  24.0149  30.0344  33.7404  33.8786  34.2383  35.1171
    35.3934  35.6010

          k = 0.0000 0.0000 0.0000 (  1045 PWs)   bands (ev):

   -26.0808  -8.2871  -8.2871  -8.2871   5.8811   8.1360   8.1360  14.3339
    14.3339  14.3339  18.4250  18.4250  18.4250  22.3176  22.7894  22.7894
    22.7894  23.6250  23.6250  30.1409  34.2176  34.2176  34.2176  35.1279
    35.1279  35.1279

          k = 0.0250 0.0250 0.0250 (  1060 PWs)   bands (ev):

   -26.0787  -8.2946  -8.2931  -8.2931   5.9196   8.1636   8.1636  14.2505
    14.2813  14.2813  18.4148  18.4444  18.4444  22.4838  22.4911  22.4911
    22.8110  24.0391  24.0391  29.9784  33.5593  33.9824  33.9824  35.3559
    35.3559  35.6548

          k = 0.0500 0.0500 0.0500 (  1069 PWs)   bands (ev):

   -26.0727  -8.3165  -8.3109  -8.3109   6.0341   8.2462   8.2462  14.0169
    14.1262  14.1262  18.3992  18.5016  18.5016  22.0846  22.0846  22.8758
    22.9504  24.7894  24.7894  29.4717  32.7208  33.5803  33.5803  34.7540
    34.7540  36.0608

          k = 0.0750 0.0750 0.0750 (  1087 PWs)   bands (ev):

   -26.0627  -8.3517  -8.3398  -8.3398   6.2204   8.3822   8.3822  13.6738
    13.8771  13.8771  18.4040  18.5942  18.5942  21.7819  21.7819  22.9836
    23.6476  25.6501  25.6501  28.6335  32.1060  33.1892  33.1892  33.7559
    33.7559  36.1333

          k = 0.1000 0.1000 0.1000 (  1087 PWs)   bands (ev):

   -26.0491  -8.3981  -8.3786  -8.3786   6.4719   8.5696   8.5696  13.2715
    13.5484  13.5484  18.4418  18.7190  18.7190  21.6098  21.6098  23.1344
    24.5052  26.5653  26.5653  27.5820  31.7018  32.7968  32.7968  32.8435
    32.8435  35.6845

          k = 0.1250 0.1250 0.1250 (  1090 PWs)   bands (ev):

   -26.0322  -8.4534  -8.4260  -8.4260   6.7776   8.8049   8.8049  12.8573
    13.1596  13.1596  18.5103  18.8724  18.8724  21.5678  21.5678  23.3280
    25.4407  26.4769  27.4724  27.4724  31.4370  31.9357  31.9357  32.5542
    32.5542  35.0986

          k = 0.1500 0.1500 0.1500 (  1084 PWs)   bands (ev):

   -26.0125  -8.5150  -8.4803  -8.4803   7.1215   9.0831   9.0831  12.4734
    12.7332  12.7332  18.5968  19.0513  19.0513  21.6455  21.6455  23.5639
    25.2326  26.5777  28.2181  28.2181  31.2765  31.3083  31.3083  32.3347
    32.3347  34.4655

          k = 0.1750 0.1750 0.1750 (  1084 PWs)   bands (ev):

   -25.9903  -8.5804  -8.5396  -8.5396   7.4798   9.3954   9.3954  12.1604
    12.2944  12.2944  18.6784  19.2532  19.2532  21.8277  21.8277  23.8418
    24.1780  27.5840  28.4438  28.4438  31.2204  31.2274  31.2274  32.2259
    32.2259  33.8389

          k = 0.2000 0.2000 0.2000 (  1084 PWs)   bands (ev):

   -25.9664  -8.6471  -8.6023  -8.6023   7.8179   9.7242   9.7242  11.8749
    11.8749  11.9622  18.7146  19.4753  19.4753  22.0961  22.0961  23.2220
    24.1611  28.0433  28.0433  28.5063  31.2734  31.5669  31.5669  32.4536
    32.4536  33.3131

          k = 0.2250 0.2250 0.2250 (  1075 PWs)   bands (ev):

   -25.9412  -8.7130  -8.6663  -8.6663   8.0930  10.0213  10.0213  11.5337
    11.5337  11.9261  18.6381  19.7132  19.7132  22.4282  22.4282  22.4588
    24.5211  27.3929  27.3929  29.1876  31.2913  31.6760  31.6760  33.1683
    33.2801  33.2801

          k = 0.2500 0.2500 0.2500 (  1069 PWs)   bands (ev):

   -25.9154  -8.7763  -8.7301  -8.7301   8.2699  10.1545  10.1545  11.4109
    11.4109  12.0880  18.3674  19.9594  19.9594  21.9777  22.7921  22.7921
    24.9207  26.7206  26.7206  29.5747  30.9747  31.6878  31.6878  33.7445
    34.3000  34.3000

          k = 0.2750 0.2750 0.2750 (  1081 PWs)   bands (ev):

   -25.8897  -8.8357  -8.7921  -8.7921   8.3451  10.0128  10.0128  11.6230
    11.6230  12.4487  17.8801  20.1994  20.1994  21.8054  23.1310  23.1310
    25.3584  26.1477  26.1477  29.7233  30.4820  31.6987  31.6987  34.7656
    35.0722  35.0722

          k = 0.3000 0.3000 0.3000 (  1072 PWs)   bands (ev):

   -25.8646  -8.8899  -8.8509  -8.8509   8.3476   9.7289   9.7289  12.0411
    12.0411  12.9735  17.2483  20.4060  20.4060  21.8727  23.3415  23.3415
    25.8137  25.8137  25.8323  29.4695  30.2440  31.7005  31.7005  34.9528
    35.0443  35.0443

          k = 0.3250 0.3250 0.3250 (  1076 PWs)   bands (ev):

   -25.8409  -8.9385  -8.9052  -8.9052   8.3151   9.4206   9.4206  12.5493
    12.5493  13.6154  16.5645  20.5284  20.5284  22.0885  23.3388  23.3388
    25.8483  25.8483  26.3393  28.8598  30.3146  31.6409  31.6409  33.9246
    34.6414  34.6414

          k = 0.3500 0.3500 0.3500 (  1076 PWs)   bands (ev):

   -25.8190  -8.9809  -8.9542  -8.9542   8.2761   9.1295   9.1295  13.1069
    13.1069  14.3315  15.8929  20.4898  20.4898  22.3901  23.2384  23.2384
    26.1994  26.1994  26.8747  28.1719  30.4375  31.4419  31.4419  32.8949
    34.3730  34.3730

          k = 0.3750 0.3750 0.3750 (  1070 PWs)   bands (ev):

   -25.7994  -9.0167  -8.9968  -8.9968   8.2466   8.8715   8.8715  13.6973
    13.6973  15.0737  15.2836  20.2319  20.2319  22.7379  23.2289  23.2289
    26.7145  26.7145  27.4313  27.4669  30.4991  31.0751  31.0751  32.0388
    34.3803  34.3803

          k = 0.4000 0.4000 0.4000 (  1058 PWs)   bands (ev):

   -25.7828  -9.0460  -9.0326  -9.0326   8.2327   8.6543   8.6543  14.3105
    14.3105  14.7199  15.8478  19.7817  19.7817  23.1025  23.3556  23.3556
    26.7706  27.2890  27.2890  27.9963  30.2712  30.6105  30.6105  31.6051
    34.6248  34.6248

          k = 0.4250 0.4250 0.4250 (  1070 PWs)   bands (ev):

   -25.7694  -9.0688  -9.0609  -9.0609   8.2332   8.4821   8.4821  14.2707
    14.9367  14.9367  16.5606  19.2179  19.2179  23.4528  23.5615  23.5615
    26.1174  27.8515  27.8515  28.5476  29.7321  30.1495  30.1495  31.6268
    34.8949  34.8949

          k = 0.4500 0.4500 0.4500 (  1070 PWs)   bands (ev):

   -25.7596  -9.0850  -9.0813  -9.0813   8.2425   8.3575   8.3575  13.9338
    15.5587  15.5587  17.1709  18.6124  18.6124  23.7480  23.7757  23.7757
    25.5661  28.3258  28.3258  29.0436  29.1986  29.7833  29.7833  31.7918
    34.5729  34.5729

          k = 0.4750 0.4750 0.4750 (  1070 PWs)   bands (ev):

   -25.7536  -9.0947  -9.0937  -9.0937   8.2527   8.2822   8.2822  13.7245
    16.1256  16.1256  17.5966  18.0463  18.0463  23.9362  23.9362  23.9371
    25.1994  28.6159  28.6159  28.8281  29.4113  29.5900  29.5900  31.9416
    34.1753  34.1754

          k = 0.5000 0.5000 0.5000 (  1064 PWs)   bands (ev):

   -25.7516  -9.0979  -9.0979  -9.0979   8.2570   8.2570   8.2570  13.6535
    16.4191  16.4191  17.7517  17.7517  17.7517  23.9961  23.9961  23.9961
    25.0759  28.6952  28.6952  28.6952  29.5520  29.5520  29.5520  32.0008
    34.0222  34.0222

     Writing all to output data dir ./work/POSCAR.save/

     init_run     :      0.25s CPU      0.26s WALL (       1 calls)
     electrons    :      3.16s CPU      3.52s WALL (       1 calls)

     Called by init_run:
     wfcinit      :      0.00s CPU      0.01s WALL (       1 calls)
     potinit      :      0.08s CPU      0.09s WALL (       1 calls)
     hinit0       :      0.13s CPU      0.13s WALL (       1 calls)

     Called by electrons:
     c_bands      :      3.16s CPU      3.51s WALL (       1 calls)
     v_of_rho     :      0.00s CPU      0.00s WALL (       1 calls)
     newd         :      0.00s CPU      0.01s WALL (       1 calls)
     PAW_pot      :      0.04s CPU      0.04s WALL (       1 calls)

     Called by c_bands:
     init_us_2    :      0.00s CPU      0.00s WALL (      91 calls)
     init_us_2:cp :      0.00s CPU      0.00s WALL (      91 calls)
     cegterg      :      2.93s CPU      3.06s WALL (     118 calls)

     Called by *egterg:
     cdiaghg      :      1.07s CPU      1.11s WALL (    1799 calls)
     h_psi        :      1.49s CPU      1.55s WALL (    1917 calls)
     s_psi        :      0.02s CPU      0.02s WALL (    1917 calls)
     g_psi        :      0.01s CPU      0.02s WALL (    1708 calls)

     Called by h_psi:
     h_psi:calbec :      0.08s CPU      0.08s WALL (    1917 calls)
     vloc_psi     :      1.37s CPU      1.43s WALL (    1917 calls)
     add_vuspsi   :      0.02s CPU      0.02s WALL (    1917 calls)

     General routines
     calbec       :      0.08s CPU      0.08s WALL (    1917 calls)
     fft          :      0.11s CPU      0.11s WALL (      13 calls)
     ffts         :      0.03s CPU      0.03s WALL (       1 calls)
     fftw         :      1.26s CPU      1.31s WALL (   52052 calls)
     interpolate  :      0.03s CPU      0.03s WALL (       1 calls)
     davcio       :      0.00s CPU      0.18s WALL (     182 calls)

     Parallel routines

     PWSCF        :      3.77s CPU      5.38s WALL


   This run was terminated on:  22:42:11  15May2024            

=------------------------------------------------------------------------------=
   JOB DONE.
=------------------------------------------------------------------------------=
