
     Program PWSCF v.7.1 starts on 15May2024 at 22:42: 2 

     This program is part of the open-source Quantum ESPRESSO suite
     for quantum simulation of materials; please cite
         "P. Giannozzi et al., J. Phys.:Condens. Matter 21 395502 (2009);
         "P. Giannozzi et al., J. Phys.:Condens. Matter 29 465901 (2017);
         "P. Giannozzi et al., J. Chem. Phys. 152 154105 (2020);
          URL http://www.quantum-espresso.org", 
     in publications or presentations arising from this work. More details at
     http://www.quantum-espresso.org/quote

     Parallel version (MPI & OpenMP), running on      10 processor cores
     Number of MPI processes:                10
     Threads/MPI process:                     1

     MPI processes distributed on     1 nodes
     14553 MiB available memory on the printing compute node when the environment starts

     Waiting for input...
     Reading input from standard input

     Current dimensions of program PWSCF are:
     Max number of different atomic species (ntypx) = 10
     Max number of k-points (npk) =  40000
     Max angular momentum in pseudopotentials (lmaxx) =  4
     file Ce.pbe-spdn-kjpaw_psl.1.0.0.UPF: wavefunction(s)  5D renormalized
     Message from routine setup:
     using ibrav=0 with symmetry is DISCOURAGED, use correct ibrav instead

     R & G space division:  proc/nbgrp/npool/nimage =      10
     Subspace diagonalization in iterative solution of the eigenvalue problem:
     a serial algorithm will be used


     Parallelization info
     --------------------
     sticks:   dense  smooth     PW     G-vecs:    dense   smooth      PW
     Min          61      50     16                 1151      870     154
     Max          62      51     17                 1152      871     157
     Sum         613     509    161                11513     8709    1551

     Using Slab Decomposition



     bravais-lattice index     =            0
     lattice parameter (alat)  =       6.5843  a.u.
     unit-cell volume          =     285.4488 (a.u.)^3
     number of atoms/cell      =            1
     number of atomic types    =            1
     number of electrons       =        11.00
     number of Kohn-Sham states=           26
     kinetic-energy cutoff     =      37.0000  Ry
     charge density cutoff     =     179.0000  Ry
     scf convergence threshold =      7.3E-05
     mixing beta               =       0.7000
     number of iterations used =            8  plain     mixing
     Exchange-correlation= SLA  PW   PBX  PBC
                           (   1   4   3   4   0   0   0)

     celldm(1)=   6.584297  celldm(2)=   0.000000  celldm(3)=   0.000000
     celldm(4)=   0.000000  celldm(5)=   0.000000  celldm(6)=   0.000000

     crystal axes: (cart. coord. in units of alat)
               a(1) = (   1.000000   0.000000   0.000000 )  
               a(2) = (   0.000000   1.000000   0.000000 )  
               a(3) = (   0.000000   0.000000   1.000000 )  

     reciprocal axes: (cart. coord. in units 2 pi/alat)
               b(1) = (  1.000000  0.000000  0.000000 )  
               b(2) = (  0.000000  1.000000  0.000000 )  
               b(3) = (  0.000000  0.000000  1.000000 )  


     PseudoPot. # 1 for Ce read from file:
     ./../../../../pseudo/psl100_PBE/Ce.pbe-spdn-kjpaw_psl.1.0.0.UPF
     MD5 check sum: 1a25380276e46fcecd5a173acdad072c
     Pseudo is Projector augmented-wave + core cor, Zval = 11.0
     Generated using 'atomic' code by A. Dal Corso  v.7.2
     Shape of augmentation charge: PSQ
     Using radial grid of 1255 points,  6 beta functions with: 
                l(1) =   0
                l(2) =   0
                l(3) =   1
                l(4) =   1
                l(5) =   2
                l(6) =   2
     Q(r) pseudized with 0 coefficients 


     atomic species   valence    mass     pseudopotential
        Ce            11.00   140.11600     Ce( 1.00)

     48 Sym. Ops., with inversion, found



   Cartesian axes

     site n.     atom                  positions (alat units)
         1           Ce  tau(   1) = (   0.0000000   0.0000000   0.0000000  )

     number of k points=    35  Methfessel-Paxton smearing, width (Ry)=  0.0200
                       cart. coord. in units 2pi/alat
        k(    1) = (   0.0000000   0.0000000   0.0000000), wk =   0.0027435
        k(    2) = (   0.0000000   0.0000000   0.1111111), wk =   0.0164609
        k(    3) = (   0.0000000   0.0000000   0.2222222), wk =   0.0164609
        k(    4) = (   0.0000000   0.0000000   0.3333333), wk =   0.0164609
        k(    5) = (   0.0000000   0.0000000   0.4444444), wk =   0.0164609
        k(    6) = (   0.0000000   0.1111111   0.1111111), wk =   0.0329218
        k(    7) = (   0.0000000   0.1111111   0.2222222), wk =   0.0658436
        k(    8) = (   0.0000000   0.1111111   0.3333333), wk =   0.0658436
        k(    9) = (   0.0000000   0.1111111   0.4444444), wk =   0.0658436
        k(   10) = (   0.0000000   0.2222222   0.2222222), wk =   0.0329218
        k(   11) = (   0.0000000   0.2222222   0.3333333), wk =   0.0658436
        k(   12) = (   0.0000000   0.2222222   0.4444444), wk =   0.0658436
        k(   13) = (   0.0000000   0.3333333   0.3333333), wk =   0.0329218
        k(   14) = (   0.0000000   0.3333333   0.4444444), wk =   0.0658436
        k(   15) = (   0.0000000   0.4444444   0.4444444), wk =   0.0329218
        k(   16) = (   0.1111111   0.1111111   0.1111111), wk =   0.0219479
        k(   17) = (   0.1111111   0.1111111   0.2222222), wk =   0.0658436
        k(   18) = (   0.1111111   0.1111111   0.3333333), wk =   0.0658436
        k(   19) = (   0.1111111   0.1111111   0.4444444), wk =   0.0658436
        k(   20) = (   0.1111111   0.2222222   0.2222222), wk =   0.0658436
        k(   21) = (   0.1111111   0.2222222   0.3333333), wk =   0.1316872
        k(   22) = (   0.1111111   0.2222222   0.4444444), wk =   0.1316872
        k(   23) = (   0.1111111   0.3333333   0.3333333), wk =   0.0658436
        k(   24) = (   0.1111111   0.3333333   0.4444444), wk =   0.1316872
        k(   25) = (   0.1111111   0.4444444   0.4444444), wk =   0.0658436
        k(   26) = (   0.2222222   0.2222222   0.2222222), wk =   0.0219479
        k(   27) = (   0.2222222   0.2222222   0.3333333), wk =   0.0658436
        k(   28) = (   0.2222222   0.2222222   0.4444444), wk =   0.0658436
        k(   29) = (   0.2222222   0.3333333   0.3333333), wk =   0.0658436
        k(   30) = (   0.2222222   0.3333333   0.4444444), wk =   0.1316872
        k(   31) = (   0.2222222   0.4444444   0.4444444), wk =   0.0658436
        k(   32) = (   0.3333333   0.3333333   0.3333333), wk =   0.0219479
        k(   33) = (   0.3333333   0.3333333   0.4444444), wk =   0.0658436
        k(   34) = (   0.3333333   0.4444444   0.4444444), wk =   0.0658436
        k(   35) = (   0.4444444   0.4444444   0.4444444), wk =   0.0219479

     Dense  grid:    11513 G-vectors     FFT dimensions: (  30,  30,  30)

     Smooth grid:     8709 G-vectors     FFT dimensions: (  25,  25,  25)

     Estimated max dynamical RAM per process >       6.59 MB

     Estimated total dynamical RAM >      65.93 MB

     Initial potential from superposition of free atoms

     starting charge      10.9735, renormalised to      11.0000
     Starting wfcs are   13 randomized atomic wfcs +   13 random wfcs
     Checking if some PAW data can be deallocated... 

     total cpu time spent up to now is        0.5 secs

     per-process dynamical memory:    13.9 Mb

     Self-consistent Calculation

     iteration #  1     ecut=    37.00 Ry     beta= 0.70
     Davidson diagonalization with overlap
     ethr =  1.00E-02,  avg # of iterations =  7.1

     Threshold (ethr) on eigenvalues was too large:
     Diagonalizing with lowered threshold

     Davidson diagonalization with overlap
     ethr =  3.43E-05,  avg # of iterations =  4.6

     total cpu time spent up to now is        1.5 secs

     total energy              =    -471.69689612 Ry
     estimated scf accuracy    <       0.00392559 Ry

     iteration #  2     ecut=    37.00 Ry     beta= 0.70
     Davidson diagonalization with overlap
     ethr =  3.57E-05,  avg # of iterations =  1.5

     total cpu time spent up to now is        1.8 secs

     total energy              =    -471.69780625 Ry
     estimated scf accuracy    <       0.00027798 Ry

     iteration #  3     ecut=    37.00 Ry     beta= 0.70
     Davidson diagonalization with overlap
     ethr =  2.53E-06,  avg # of iterations =  2.9

     total cpu time spent up to now is        2.2 secs

     End of self-consistent calculation

          k = 0.0000 0.0000 0.0000 (  1045 PWs)   bands (ev):

   -26.0752  -8.2832  -8.2832  -8.2832   5.8801   8.1364   8.1364  14.3348
    14.3348  14.3348  18.4224  18.4224  18.4224  22.3229  22.7868  22.7868
    22.7868  23.6262  23.6262  30.1381  34.2145  34.2145  34.2145  35.1306
    35.1307  35.1308

          k = 0.0000 0.0000 0.1111 (  1077 PWs)   bands (ev):

   -26.0622  -8.4292  -8.2709  -8.2709   6.1183   8.2046   8.4301  13.7989
    13.7989  14.3700  17.5073  19.0059  19.0059  20.9592  22.9286  23.1881
    23.1881  24.3763  25.7755  29.3331  32.3196  32.3196  32.8310  33.8989
    35.3796  36.7468

          k = 0.0000 0.0000 0.2222 (  1093 PWs)   bands (ev):

   -26.0291  -8.7795  -8.2394  -8.2394   6.6845   8.3879   9.2388  12.8330
    12.8330  14.4616  16.1893  19.1589  20.0224  20.0224  23.2383  24.3980
    24.3980  26.6030  28.0376  28.5371  28.9599  30.4904  30.4904  32.1977
    36.8276  37.1534

          k = 0.0000 0.0000 0.3333 (  1089 PWs)   bands (ev):

   -25.9909  -9.1500  -8.2031  -8.2031   7.3465   8.6188  10.0556  12.0322
    12.0322  14.5706  15.7606  17.8323  20.8508  20.8508  22.6540  25.9141
    25.9141  26.2409  27.0119  28.4335  29.6490  29.6490  31.4183  31.9082
    36.8687  37.2124

          k = 0.0000 0.0000 0.4444 (  1092 PWs)   bands (ev):

   -25.9657  -9.3784  -8.1792  -8.1792   7.8821   8.7859  10.2122  11.5984
    11.5984  14.6447  16.7795  17.1137  20.5205  21.3486  21.3486  25.7859
    26.3623  26.3623  26.4604  28.2483  30.9169  30.9169  33.9327  34.4974
    34.7841  34.7842

          k = 0.0000 0.1111 0.1111 (  1077 PWs)   bands (ev):

   -26.0493  -8.4237  -8.4079  -8.2586   6.3581   8.3870   8.6033  13.2183
    13.7229  13.9774  18.0580  18.0823  19.6181  20.9598  22.1479  23.5315
    24.0011  25.4716  26.7591  28.3095  30.6884  32.2981  33.0674  33.7281
    34.6187  35.5239

          k = 0.0000 0.1111 0.2222 (  1094 PWs)   bands (ev):

   -26.0163  -8.7644  -8.3814  -8.2273   6.9186   8.6124   9.3439  12.2610
    12.8731  13.9930  16.7004  18.9466  19.6415  20.7208  23.2415  24.6045
    24.6800  26.8864  27.1730  28.8370  29.1208  29.3688  31.9184  33.4555
    34.0987  36.5580

          k = 0.0000 0.1111 0.3333 (  1095 PWs)   bands (ev):

   -25.9782  -9.1326  -8.3425  -8.1913   7.5699   8.8533   9.9034  11.8537
    12.0877  14.1169  16.0629  18.3756  19.7007  21.6102  23.4379  24.9304
    25.1478  26.7498  26.9852  28.1829  29.9401  30.8547  31.2910  33.3397
    34.1452  37.1214

          k = 0.0000 0.1111 0.4444 (  1092 PWs)   bands (ev):

   -25.9531  -9.3598  -8.3167  -8.1675   8.1305   9.0558   9.6161  11.6584
    11.9820  14.2047  16.7936  17.6948  20.0725  21.0505  22.1637  24.5360
    25.1024  26.9197  28.2645  29.3621  30.5350  31.1840  32.3003  33.5895
    34.9652  35.4461

          k = 0.0000 0.2222 0.2222 (  1083 PWs)   bands (ev):

   -25.9835  -8.7414  -8.7074  -8.1965   7.4202   8.9735   9.8889  11.4335
    12.8546  13.2329  17.2024  17.7493  20.2426  22.0494  22.8063  25.4084
    25.4100  25.6859  26.8545  28.0060  29.6921  29.9686  32.0461  33.6404
    35.7223  36.4947

          k = 0.0000 0.2222 0.3333 (  1090 PWs)   bands (ev):

   -25.9458  -9.0881  -8.6782  -8.1610   7.9332   8.9749  10.2801  11.7367
    12.2321  13.2387  16.4662  18.2631  19.6883  22.8112  23.3495  24.4861
    24.6179  25.7006  27.2017  28.4773  29.6017  31.6102  33.0253  34.1579
    34.6872  36.6576

          k = 0.0000 0.2222 0.4444 (  1091 PWs)   bands (ev):

   -25.9209  -9.3120  -8.6485  -8.1377   8.3571   8.7370  10.2178  11.8186
    12.4969  13.3388  16.7038  18.8837  19.2249  20.8904  22.8094  23.9621
    24.2886  27.4905  29.1292  29.5328  29.8577  31.4357  32.0715  33.3519
    35.5782  35.9204

          k = 0.0000 0.3333 0.3333 (  1095 PWs)   bands (ev):

   -25.9084  -9.0480  -9.0235  -8.1263   7.9306   8.8149  11.6648  11.9034
    12.3339  12.5568  16.4154  17.8394  20.2791  22.1999  23.2018  23.8149
    25.3761  26.0242  26.1170  27.8982  32.1077  32.4462  33.1327  34.7176
    36.1135  36.3334

          k = 0.0000 0.3333 0.4444 (  1087 PWs)   bands (ev):

   -25.8838  -9.2566  -9.0013  -8.1034   7.6792   8.9608  11.8837  12.0173
    12.5833  12.9330  16.3548  18.6335  19.9343  20.7683  21.6328  24.1283
    24.6957  26.9318  27.6080  30.1349  30.4349  32.7329  33.0790  35.0292
    35.7802  36.4051

          k = 0.0000 0.4444 0.4444 (  1085 PWs)   bands (ev):

   -25.8593  -9.2216  -9.2179  -8.0808   7.2447   9.1922  12.1468  12.1780
    13.1988  13.2273  16.1667  19.1364  19.5759  20.8900  20.9793  21.7646
    25.4171  27.7100  29.2349  29.7173  30.6899  33.3509  33.5285  33.6620
    35.7605  35.8054

          k = 0.1111 0.1111 0.1111 (  1090 PWs)   bands (ev):

   -26.0364  -8.4179  -8.3949  -8.3949   6.6011   8.6691   8.6691  13.0861
    13.3819  13.3819  18.4697  18.7823  18.7823  21.5741  21.5741  23.2125
    24.9227  26.9749  26.9749  27.0834  31.5706  32.3983  32.3983  32.7063
    32.7063  35.4352

          k = 0.1111 0.1111 0.2222 (  1086 PWs)   bands (ev):

   -26.0034  -8.7493  -8.3752  -8.3616   7.1590   8.8488   9.4278  12.3073
    12.3311  13.4503  17.3091  19.3453  19.6699  20.5088  23.0631  24.1211
    25.3285  25.9745  27.9236  29.1285  29.5907  30.4255  30.9916  32.8077
    34.7624  35.1094

          k = 0.1111 0.1111 0.3333 (  1082 PWs)   bands (ev):

   -25.9655  -9.1153  -8.3362  -8.3232   7.8037   9.0862   9.8374  11.4505
    12.2753  13.6042  16.5189  18.7862  19.9279  21.1941  23.4210  24.0667
    25.7362  26.0569  27.6249  29.2490  29.3505  31.1608  31.3367  34.1172
    34.2966  35.2239

          k = 0.1111 0.1111 0.4444 (  1092 PWs)   bands (ev):

   -25.9405  -9.3413  -8.3104  -8.2980   8.4245   9.2756   9.4114  10.9481
    12.8148  13.7150  16.9272  18.1547  20.1263  21.4532  21.7287  22.9448
    26.5961  27.3842  27.9758  29.7831  30.0338  31.7676  31.9247  33.7145
    33.9222  34.8606

          k = 0.1111 0.2222 0.2222 (  1086 PWs)   bands (ev):

   -25.9708  -8.7265  -8.6928  -8.3350   7.6556   9.2368   9.9242  11.4925
    12.3979  12.5970  18.0814  18.2675  20.3811  21.4379  22.8052  24.0273
    24.6693  27.0705  27.2044  29.2149  29.7353  30.6733  32.1504  32.9136
    33.8126  34.7141

          k = 0.1111 0.2222 0.3333 (  1093 PWs)   bands (ev):

   -25.9332  -9.0713  -8.6639  -8.2971   8.1275   9.2598  10.2895  11.1684
    12.4776  12.7038  17.1490  18.8274  19.9390  21.6347  23.1466  24.1637
    25.0620  26.3018  26.9393  28.7909  30.2876  31.7018  32.6720  34.1223
    34.7991  35.5075

          k = 0.1111 0.2222 0.4444 (  1090 PWs)   bands (ev):

   -25.9084  -9.2940  -8.6344  -8.2720   8.4517   9.1119  10.2699  10.7560
    12.8368  13.5291  17.0357  19.3494  19.3707  20.6552  22.1109  23.4852
    25.5951  27.7053  28.6503  29.1161  30.6466  31.2374  31.8846  33.9258
    34.3406  34.9059

          k = 0.1111 0.3333 0.3333 (  1093 PWs)   bands (ev):

   -25.8960  -9.0314  -9.0074  -8.2600   8.0256   9.2116  11.1501  11.2091
    12.5333  12.8060  17.2428  18.1582  20.0071  21.6503  23.3065  24.6449
    25.4342  25.4437  26.8382  27.2002  32.4407  33.3696  33.5316  34.0501
    34.4581  34.9211

          k = 0.1111 0.3333 0.4444 (  1084 PWs)   bands (ev):

   -25.8714  -9.2392  -8.9853  -8.2355   7.7664   9.4027  10.9079  11.2941
    12.7807  14.0119  16.8728  18.5207  19.5306  20.8103  22.1569  24.3477
    25.2259  26.5154  27.7502  29.4365  30.5235  32.3128  33.7148  34.4674
    35.1205  35.8808

          k = 0.1111 0.4444 0.4444 (  1077 PWs)   bands (ev):

   -25.8470  -9.2045  -9.2009  -8.2114   7.3434   9.6689  11.0677  11.0740
    14.1813  14.3412  16.4585  18.0360  19.6125  21.1211  21.7308  22.1700
    26.0133  27.7895  29.1266  29.3324  29.9964  32.7952  33.0013  33.4635
    34.5686  36.3878

          k = 0.2222 0.2222 0.2222 (  1078 PWs)   bands (ev):

   -25.9384  -8.7021  -8.6554  -8.6554   8.0665   9.9933   9.9933  11.5641
    11.5641  11.9197  18.6578  19.6864  19.6864  22.3869  22.3869  22.5291
    24.4766  27.4699  27.4699  29.1280  31.3037  31.6725  31.6725  33.1519
    33.1707  33.1707

          k = 0.2222 0.2222 0.3333 (  1084 PWs)   bands (ev):

   -25.9011  -9.0283  -8.6403  -8.6124   8.3311   9.9540  10.1351  10.8864
    11.9207  12.7644  17.9963  19.1645  20.5270  21.5807  22.1769  24.2279
    25.2881  25.5548  27.6089  29.1878  30.4580  31.2145  33.0811  33.9990
    34.8075  35.0013

          k = 0.2222 0.2222 0.4444 (  1089 PWs)   bands (ev):

   -25.8765  -9.2480  -8.6112  -8.5840   8.4225   9.7652   9.9362  10.7169
    12.1195  14.4842  17.4646  18.4821  20.3219  21.3762  22.2099  22.6493
    26.9301  27.5409  27.6351  29.0833  30.3545  31.4112  31.8115  33.0459
    33.2410  36.8004

          k = 0.2222 0.3333 0.3333 (  1086 PWs)   bands (ev):

   -25.8642  -8.9894  -8.9662  -8.5831   8.2171   9.6781  10.1559  11.1326
    12.6085  13.2532  17.4989  18.9218  20.8910  21.4044  23.5178  23.6322
    25.5793  26.0085  26.3263  28.6076  30.6260  32.0137  33.1708  33.6603
    35.2229  35.2802

          k = 0.2222 0.3333 0.4444 (  1077 PWs)   bands (ev):

   -25.8398  -9.1946  -8.9445  -8.5551   7.9927   9.5973   9.9782  11.1631
    13.0100  15.0793  16.9706  17.9273  20.7982  21.4090  22.5801  23.5439
    26.0774  26.9567  28.1105  28.6554  30.4712  30.9488  31.2514  33.7063
    34.4927  36.0223

          k = 0.2222 0.4444 0.4444 (  1076 PWs)   bands (ev):

   -25.8156  -9.1609  -9.1575  -8.5276   7.6181   9.7110   9.7984  11.1567
    14.9550  15.5684  16.2917  17.3366  20.3669  21.8517  21.9293  23.0804
    27.7453  27.9860  28.0535  28.8667  29.6428  30.5901  31.6557  31.8330
    33.7795  35.0478

          k = 0.3333 0.3333 0.3333 (  1070 PWs)   bands (ev):

   -25.8276  -8.9497  -8.9186  -8.9186   8.3012   9.3194   9.3194  12.7318
    12.7318  13.8466  16.3386  20.5382  20.5382  22.1827  23.3057  23.3057
    25.9370  25.9370  26.5126  28.6334  30.3560  31.5938  31.5938  33.5703
    34.5251  34.5251

          k = 0.3333 0.3333 0.4444 (  1073 PWs)   bands (ev):

   -25.8035  -9.1431  -8.9066  -8.8871   8.1708   8.8650   9.2787  12.8205
    13.4523  15.5498  15.8504  18.6016  21.6360  22.4125  22.6762  22.9942
    26.3353  27.4812  27.8894  28.2004  29.8567  30.1731  31.2037  32.8003
    33.2760  35.7835

          k = 0.3333 0.4444 0.4444 (  1078 PWs)   bands (ev):

   -25.7795  -9.1105  -9.1072  -8.8655   7.9888   8.8129   8.8668  13.2021
    14.8355  15.2853  16.4301  18.2509  20.3298  22.7736  22.9588  23.5266
    26.9835  27.9815  28.0122  28.5167  29.2779  30.4790  30.7564  30.7654
    34.2404  34.3680

          k = 0.4444 0.4444 0.4444 (  1070 PWs)   bands (ev):

   -25.7557  -9.0784  -9.0739  -9.0739   8.2389   8.3797   8.3797  13.9995
    15.4240  15.4240  17.0471  18.7471  18.7471  23.6930  23.7342  23.7342
    25.6736  28.2312  28.2312  28.9397  29.3053  29.8512  29.8512  31.7551
    34.6728  34.6729

     the Fermi energy is     9.0711 ev

!    total energy              =    -471.69784984 Ry
     total all-electron energy =    -17721.222579 Ry
     estimated scf accuracy    <       0.00001153 Ry
     smearing contrib. (-TS)   =      -0.00012221 Ry
     internal energy E=F+TS    =    -471.69772762 Ry

     The total energy is F=E-TS. E is the sum of the following terms:
     one-electron contribution =     -10.56096775 Ry
     hartree contribution      =       9.86061431 Ry
     xc contribution           =     -73.08021372 Ry
     ewald contribution        =     -52.14117589 Ry
     one-center paw contrib.   =    -345.77598458 Ry

     convergence has been achieved in   3 iterations

     Writing all to output data dir ./work/POSCAR.save/

     init_run     :      0.29s CPU      0.29s WALL (       1 calls)
     electrons    :      1.37s CPU      1.74s WALL (       1 calls)

     Called by init_run:
     wfcinit      :      0.06s CPU      0.06s WALL (       1 calls)
     potinit      :      0.08s CPU      0.08s WALL (       1 calls)
     hinit0       :      0.14s CPU      0.14s WALL (       1 calls)

     Called by electrons:
     c_bands      :      1.12s CPU      1.39s WALL (       4 calls)
     sum_band     :      0.11s CPU      0.12s WALL (       4 calls)
     v_of_rho     :      0.00s CPU      0.00s WALL (       4 calls)
     newd         :      0.01s CPU      0.01s WALL (       4 calls)
     PAW_pot      :      0.17s CPU      0.17s WALL (       4 calls)
     mix_rho      :      0.00s CPU      0.00s WALL (       4 calls)

     Called by c_bands:
     init_us_2    :      0.01s CPU      0.01s WALL (     315 calls)
     init_us_2:cp :      0.01s CPU      0.01s WALL (     315 calls)
     cegterg      :      1.09s CPU      1.14s WALL (     140 calls)

     Called by *egterg:
     cdiaghg      :      0.36s CPU      0.38s WALL (     667 calls)
     h_psi        :      0.60s CPU      0.63s WALL (     737 calls)
     s_psi        :      0.01s CPU      0.01s WALL (     737 calls)
     g_psi        :      0.01s CPU      0.01s WALL (     562 calls)

     Called by h_psi:
     h_psi:calbec :      0.03s CPU      0.03s WALL (     737 calls)
     vloc_psi     :      0.55s CPU      0.58s WALL (     737 calls)
     add_vuspsi   :      0.01s CPU      0.01s WALL (     737 calls)

     General routines
     calbec       :      0.04s CPU      0.04s WALL (     877 calls)
     fft          :      0.11s CPU      0.11s WALL (      51 calls)
     ffts         :      0.03s CPU      0.03s WALL (       8 calls)
     fftw         :      0.58s CPU      0.61s WALL (   25596 calls)
     interpolate  :      0.03s CPU      0.03s WALL (       4 calls)

     Parallel routines

     PWSCF        :      1.82s CPU      2.89s WALL


   This run was terminated on:  22:42: 5  15May2024            

=------------------------------------------------------------------------------=
   JOB DONE.
=------------------------------------------------------------------------------=
