
     Program PWSCF v.7.1 starts on 15May2024 at 22:40:26 

     This program is part of the open-source Quantum ESPRESSO suite
     for quantum simulation of materials; please cite
         "P. Giannozzi et al., J. Phys.:Condens. Matter 21 395502 (2009);
         "P. Giannozzi et al., J. Phys.:Condens. Matter 29 465901 (2017);
         "P. Giannozzi et al., J. Chem. Phys. 152 154105 (2020);
          URL http://www.quantum-espresso.org", 
     in publications or presentations arising from this work. More details at
     http://www.quantum-espresso.org/quote

     Parallel version (MPI & OpenMP), running on      10 processor cores
     Number of MPI processes:                10
     Threads/MPI process:                     1

     MPI processes distributed on     1 nodes
     14563 MiB available memory on the printing compute node when the environment starts

     Waiting for input...
     Reading input from standard input

     Current dimensions of program PWSCF are:
     Max number of different atomic species (ntypx) = 10
     Max number of k-points (npk) =  40000
     Max angular momentum in pseudopotentials (lmaxx) =  4
     file Ce.pbe-spdn-kjpaw_psl.1.0.0.UPF: wavefunction(s)  5D renormalized
     Message from routine setup:
     using ibrav=0 with symmetry is DISCOURAGED, use correct ibrav instead

     R & G space division:  proc/nbgrp/npool/nimage =      10
     Subspace diagonalization in iterative solution of the eigenvalue problem:
     a serial algorithm will be used


     Parallelization info
     --------------------
     sticks:   dense  smooth     PW     G-vecs:    dense   smooth      PW
     Min          56      47     14                 1013      751     134
     Max          57      48     15                 1014      753     137
     Sum         569     473    145                10131     7521    1357

     Using Slab Decomposition



     bravais-lattice index     =            0
     lattice parameter (alat)  =       6.3029  a.u.
     unit-cell volume          =     250.3945 (a.u.)^3
     number of atoms/cell      =            1
     number of atomic types    =            1
     number of electrons       =        11.00
     number of Kohn-Sham states=           26
     kinetic-energy cutoff     =      37.0000  Ry
     charge density cutoff     =     179.0000  Ry
     scf convergence threshold =      7.3E-05
     mixing beta               =       0.7000
     number of iterations used =            8  plain     mixing
     Exchange-correlation= SLA  PW   PBX  PBC
                           (   1   4   3   4   0   0   0)

     celldm(1)=   6.302917  celldm(2)=   0.000000  celldm(3)=   0.000000
     celldm(4)=   0.000000  celldm(5)=   0.000000  celldm(6)=   0.000000

     crystal axes: (cart. coord. in units of alat)
               a(1) = (   1.000000   0.000000   0.000000 )  
               a(2) = (   0.000000   1.000000   0.000000 )  
               a(3) = (   0.000000   0.000000   1.000000 )  

     reciprocal axes: (cart. coord. in units 2 pi/alat)
               b(1) = (  1.000000  0.000000  0.000000 )  
               b(2) = (  0.000000  1.000000  0.000000 )  
               b(3) = (  0.000000  0.000000  1.000000 )  


     PseudoPot. # 1 for Ce read from file:
     ./../../../../pseudo/psl100_PBE/Ce.pbe-spdn-kjpaw_psl.1.0.0.UPF
     MD5 check sum: 1a25380276e46fcecd5a173acdad072c
     Pseudo is Projector augmented-wave + core cor, Zval = 11.0
     Generated using 'atomic' code by A. Dal Corso  v.7.2
     Shape of augmentation charge: PSQ
     Using radial grid of 1255 points,  6 beta functions with: 
                l(1) =   0
                l(2) =   0
                l(3) =   1
                l(4) =   1
                l(5) =   2
                l(6) =   2
     Q(r) pseudized with 0 coefficients 


     atomic species   valence    mass     pseudopotential
        Ce            11.00   140.11600     Ce( 1.00)

     48 Sym. Ops., with inversion, found



   Cartesian axes

     site n.     atom                  positions (alat units)
         1           Ce  tau(   1) = (   0.0000000   0.0000000   0.0000000  )

     number of k points=    35  Methfessel-Paxton smearing, width (Ry)=  0.0200
                       cart. coord. in units 2pi/alat
        k(    1) = (   0.0000000   0.0000000   0.0000000), wk =   0.0027435
        k(    2) = (   0.0000000   0.0000000   0.1111111), wk =   0.0164609
        k(    3) = (   0.0000000   0.0000000   0.2222222), wk =   0.0164609
        k(    4) = (   0.0000000   0.0000000   0.3333333), wk =   0.0164609
        k(    5) = (   0.0000000   0.0000000   0.4444444), wk =   0.0164609
        k(    6) = (   0.0000000   0.1111111   0.1111111), wk =   0.0329218
        k(    7) = (   0.0000000   0.1111111   0.2222222), wk =   0.0658436
        k(    8) = (   0.0000000   0.1111111   0.3333333), wk =   0.0658436
        k(    9) = (   0.0000000   0.1111111   0.4444444), wk =   0.0658436
        k(   10) = (   0.0000000   0.2222222   0.2222222), wk =   0.0329218
        k(   11) = (   0.0000000   0.2222222   0.3333333), wk =   0.0658436
        k(   12) = (   0.0000000   0.2222222   0.4444444), wk =   0.0658436
        k(   13) = (   0.0000000   0.3333333   0.3333333), wk =   0.0329218
        k(   14) = (   0.0000000   0.3333333   0.4444444), wk =   0.0658436
        k(   15) = (   0.0000000   0.4444444   0.4444444), wk =   0.0329218
        k(   16) = (   0.1111111   0.1111111   0.1111111), wk =   0.0219479
        k(   17) = (   0.1111111   0.1111111   0.2222222), wk =   0.0658436
        k(   18) = (   0.1111111   0.1111111   0.3333333), wk =   0.0658436
        k(   19) = (   0.1111111   0.1111111   0.4444444), wk =   0.0658436
        k(   20) = (   0.1111111   0.2222222   0.2222222), wk =   0.0658436
        k(   21) = (   0.1111111   0.2222222   0.3333333), wk =   0.1316872
        k(   22) = (   0.1111111   0.2222222   0.4444444), wk =   0.1316872
        k(   23) = (   0.1111111   0.3333333   0.3333333), wk =   0.0658436
        k(   24) = (   0.1111111   0.3333333   0.4444444), wk =   0.1316872
        k(   25) = (   0.1111111   0.4444444   0.4444444), wk =   0.0658436
        k(   26) = (   0.2222222   0.2222222   0.2222222), wk =   0.0219479
        k(   27) = (   0.2222222   0.2222222   0.3333333), wk =   0.0658436
        k(   28) = (   0.2222222   0.2222222   0.4444444), wk =   0.0658436
        k(   29) = (   0.2222222   0.3333333   0.3333333), wk =   0.0658436
        k(   30) = (   0.2222222   0.3333333   0.4444444), wk =   0.1316872
        k(   31) = (   0.2222222   0.4444444   0.4444444), wk =   0.0658436
        k(   32) = (   0.3333333   0.3333333   0.3333333), wk =   0.0219479
        k(   33) = (   0.3333333   0.3333333   0.4444444), wk =   0.0658436
        k(   34) = (   0.3333333   0.4444444   0.4444444), wk =   0.0658436
        k(   35) = (   0.4444444   0.4444444   0.4444444), wk =   0.0219479

     Dense  grid:    10131 G-vectors     FFT dimensions: (  27,  27,  27)

     Smooth grid:     7521 G-vectors     FFT dimensions: (  25,  25,  25)

     Estimated max dynamical RAM per process >       5.92 MB

     Estimated total dynamical RAM >      59.20 MB

     Initial potential from superposition of free atoms

     starting charge      10.9735, renormalised to      11.0000
     Starting wfcs are   13 randomized atomic wfcs +   13 random wfcs
     Checking if some PAW data can be deallocated... 

     total cpu time spent up to now is        0.5 secs

     per-process dynamical memory:    13.5 Mb

     Self-consistent Calculation

     iteration #  1     ecut=    37.00 Ry     beta= 0.70
     Davidson diagonalization with overlap
     ethr =  1.00E-02,  avg # of iterations =  7.0

     Threshold (ethr) on eigenvalues was too large:
     Diagonalizing with lowered threshold

     Davidson diagonalization with overlap
     ethr =  4.85E-05,  avg # of iterations =  4.1

     total cpu time spent up to now is        1.3 secs

     total energy              =    -471.69929490 Ry
     estimated scf accuracy    <       0.00553055 Ry

     iteration #  2     ecut=    37.00 Ry     beta= 0.70
     Davidson diagonalization with overlap
     ethr =  5.03E-05,  avg # of iterations =  1.5

     total cpu time spent up to now is        1.5 secs

     total energy              =    -471.70052719 Ry
     estimated scf accuracy    <       0.00032950 Ry

     iteration #  3     ecut=    37.00 Ry     beta= 0.70
     Davidson diagonalization with overlap
     ethr =  3.00E-06,  avg # of iterations =  2.6

     total cpu time spent up to now is        1.8 secs

     End of self-consistent calculation

          k = 0.0000 0.0000 0.0000 (   949 PWs)   bands (ev):

   -24.4200  -6.3941  -6.3941  -6.3941   7.4152   9.4696   9.4696  16.6932
    16.6932  16.6932  20.8169  20.8169  20.8169  25.0581  25.0581  25.0581
    25.2594  26.3255  26.3255  33.0912  37.8525  37.8525  37.8525  38.6912
    38.6912  38.6912

          k = 0.0000 0.0000 0.1111 (   952 PWs)   bands (ev):

   -24.3992  -6.6082  -6.3758  -6.3758   7.6879   9.5482   9.8459  16.0221
    16.0221  16.7365  19.8212  21.4959  21.4959  23.1694  25.5459  25.5459
    25.8407  27.2315  28.5762  32.2372  35.7485  35.7486  36.7475  37.7250
    39.0997  40.6916

          k = 0.0000 0.0000 0.2222 (   952 PWs)   bands (ev):

   -24.3459  -7.1130  -6.3292  -6.3292   8.2938   9.7604  10.9011  14.8602
    14.8602  16.8498  18.3840  21.1905  22.5677  22.5677  26.1435  27.0398
    27.0398  29.7448  30.8262  31.6465  32.6384  33.7370  33.7370  35.6289
    41.4232  41.4232

          k = 0.0000 0.0000 0.3333 (   956 PWs)   bands (ev):

   -24.2841  -7.6352  -6.2754  -6.2754   8.9827  10.0301  11.9537  13.9150
    13.9150  16.9857  17.9991  19.7194  23.3835  23.3835  25.6373  28.9331
    28.9331  29.4374  29.6928  31.6482  32.7608  32.7608  34.9391  35.3907
    41.3740  41.3742

          k = 0.0000 0.0000 0.4444 (   944 PWs)   bands (ev):

   -24.2430  -7.9524  -6.2397  -6.2397   9.5516  10.2271  12.1319  13.4059
    13.4059  17.0789  18.9173  19.4349  23.1682  23.8724  23.8724  28.8787
    29.0788  29.5007  29.5007  31.2677  34.1879  34.1879  38.1487  38.3509
    38.5569  38.5569

          k = 0.0000 0.1111 0.1111 (   949 PWs)   bands (ev):

   -24.3785  -6.6003  -6.5765  -6.3577   7.9647   9.7815  10.0543  15.3055
    15.9284  16.2443  20.4247  20.5185  22.2244  23.2479  24.4586  25.9439
    27.0589  28.2920  29.7056  31.1612  33.9420  36.3641  36.4897  37.9335
    38.2962  39.2964

          k = 0.0000 0.1111 0.2222 (   948 PWs)   bands (ev):

   -24.3254  -7.0904  -6.5371  -6.3114   8.5623  10.0511  11.0075  14.1774
    14.9090  16.2629  18.9595  21.3978  21.7908  23.4208  25.8285  27.2455
    27.7140  29.6179  30.3126  32.0837  32.4118  32.8555  35.2491  37.5660
    37.7451  40.3823

          k = 0.0000 0.1111 0.3333 (   940 PWs)   bands (ev):

   -24.2637  -7.6092  -6.4787  -6.2579   9.2306  10.3335  11.6817  13.7883
    13.9814  16.4175  18.3177  20.4051  22.1459  24.2966  26.5539  27.8149
    27.8383  29.8314  29.9323  31.2563  33.3732  34.0650  35.0169  36.9128
    38.1191  41.1957

          k = 0.0000 0.1111 0.4444 (   949 PWs)   bands (ev):

   -24.2228  -7.9248  -6.4400  -6.2225   9.8137  10.5843  11.2972  13.4773
    13.9716  16.5281  19.3568  19.7073  22.5424  23.7522  24.8344  27.1453
    27.9188  30.1103  31.4636  32.6354  33.8717  34.4561  36.5226  37.2201
    38.7305  39.2883

          k = 0.0000 0.2222 0.2222 (   953 PWs)   bands (ev):

   -24.2727  -7.0555  -7.0053  -6.2659   9.0733  10.5243  11.6410  13.2660
    14.8904  15.3416  19.4258  20.1035  22.6919  24.9410  25.2390  28.0523
    28.1259  28.8001  30.2234  31.1578  33.0457  33.7587  35.5965  37.0882
    39.5433  40.3191

          k = 0.0000 0.2222 0.3333 (   948 PWs)   bands (ev):

   -24.2117  -7.5427  -6.9607  -6.2134   9.5467  10.4801  12.1101  13.7872
    14.1550  15.3539  18.6956  20.5825  22.0850  25.4962  26.2755  27.2601
    27.5633  28.6047  30.2360  32.0169  33.0336  35.2699  36.4692  37.8256
    38.4870  40.6136

          k = 0.0000 0.2222 0.4444 (   944 PWs)   bands (ev):

   -24.1711  -7.8536  -6.9156  -6.1786   9.8377  10.3052  12.0877  13.6690
    14.6175  15.4790  19.2208  21.1158  21.7086  23.7027  25.2338  26.4652
    27.2348  31.0246  32.5818  32.9605  33.2740  34.9075  35.4820  37.0019
    39.3126  39.6301

          k = 0.0000 0.3333 0.3333 (   946 PWs)   bands (ev):

   -24.1513  -7.4815  -7.4461  -6.1619   9.3049  10.3933  13.7789  14.0600
    14.2812  14.5453  18.6288  20.1589  22.8872  24.5591  26.2398  26.8587
    28.0429  29.2258  29.4137  30.9645  35.8135  35.9295  36.8380  38.3409
    40.1964  40.3457

          k = 0.0000 0.3333 0.4444 (   951 PWs)   bands (ev):

   -24.1112  -7.7705  -7.4116  -6.1279   8.9157  10.6064  13.9092  14.0699
    14.5825  15.1441  18.7458  21.1334  22.4917  23.5646  23.8854  26.7571
    28.1406  30.2337  30.4995  33.6056  33.7345  36.3735  36.7976  38.9140
    39.3776  40.1935

          k = 0.0000 0.4444 0.4444 (   960 PWs)   bands (ev):

   -24.0714  -7.7174  -7.7121  -6.0944   8.3854  10.8665  14.0682  14.1054
    15.4792  15.4974  18.7328  21.7257  22.1194  23.1416  23.4691  25.1025
    28.2953  30.4926  32.3104  33.4216  34.1195  36.6220  37.4529  37.5334
    39.6787  39.8452

          k = 0.1111 0.1111 0.1111 (   958 PWs)   bands (ev):

   -24.3579  -6.5918  -6.5572  -6.5572   8.2510  10.1294  10.1294  15.1586
    15.4982  15.4982  21.0485  21.2750  21.2750  23.9207  23.9207  25.5231
    28.0939  29.8737  29.9639  29.9640  34.7903  36.0947  36.0947  36.5666
    36.5666  39.6706

          k = 0.1111 0.1111 0.2222 (   947 PWs)   bands (ev):

   -24.3049  -7.0679  -6.5280  -6.5077   8.8496  10.3351  11.0957  14.2383
    14.2555  15.5841  19.7037  21.9369  22.0529  22.9510  25.6499  26.6311
    28.1125  29.0671  31.2681  32.5025  33.0837  33.6260  34.2464  36.8292
    38.3689  39.3190

          k = 0.1111 0.1111 0.3333 (   939 PWs)   bands (ev):

   -24.2435  -7.5836  -6.4695  -6.4504   9.5067  10.6084  11.5818  13.2039
    14.3371  15.7759  18.8753  20.8834  22.5258  23.7836  26.0626  27.1729
    28.6494  28.9802  30.7017  32.3814  32.6092  34.7292  35.1417  37.8826
    38.0331  39.3302

          k = 0.1111 0.1111 0.4444 (   946 PWs)   bands (ev):

   -24.2027  -7.8974  -6.4306  -6.4125  10.1688  10.8287  11.0644  12.6166
    14.9892  15.9163  19.6050  20.1661  22.6976  24.2485  24.3113  25.3628
    29.7490  30.2393  31.2783  33.0381  33.4776  35.2876  35.9087  37.4173
    37.5045  39.0959

          k = 0.1111 0.2222 0.2222 (   949 PWs)   bands (ev):

   -24.2524  -7.0334  -6.9836  -6.4682   9.3608  10.8208  11.6771  13.3182
    14.3716  14.5522  20.5115  20.7844  22.9037  24.1156  25.2797  26.6217
    27.2416  30.4134  30.7260  32.4002  33.4851  34.0112  35.6675  36.3204
    37.4073  38.9650

          k = 0.1111 0.2222 0.3333 (   949 PWs)   bands (ev):

   -24.1916  -7.5178  -6.9394  -6.4116   9.7546  10.8370  12.1199  12.9292
    14.5926  14.7366  19.5514  21.3113  22.3064  24.1599  25.9425  27.2054
    27.9579  29.2405  29.9721  32.3695  33.7622  35.0791  36.3401  38.0325
    38.5750  39.6796

          k = 0.1111 0.2222 0.4444 (   947 PWs)   bands (ev):

   -24.1512  -7.8270  -6.8947  -6.3740   9.9041  10.8144  12.1239  12.4238
    14.8693  15.8563  19.6882  21.6215  21.8333  23.2913  24.5665  26.3943
    28.3605  31.2509  31.9479  32.5607  34.0354  34.6025  35.3523  37.5361
    38.5453  38.9001

          k = 0.1111 0.3333 0.3333 (   946 PWs)   bands (ev):

   -24.1314  -7.4571  -7.4223  -6.3563   9.4016  10.8802  13.0183  13.0253
    14.6337  15.0760  19.6531  20.5499  22.3325  24.3609  26.3534  28.0048
    28.1172  28.4637  29.8915  30.1634  36.1734  37.1019  37.1097  37.6269
    38.7067  38.7644

          k = 0.1111 0.3333 0.4444 (   954 PWs)   bands (ev):

   -24.0914  -7.7448  -7.3880  -6.3197   9.0147  11.1367  12.6289  13.1812
    14.9896  16.4302  19.4385  20.8208  21.9790  23.5528  24.7806  27.7700
    27.9275  29.7114  30.6458  32.8274  33.8291  35.9144  37.4450  38.6834
    38.7842  39.5780

          k = 0.1111 0.4444 0.4444 (   960 PWs)   bands (ev):

   -24.0518  -7.6923  -7.6871  -6.2837   8.4968  11.4344  12.8281  12.8373
    16.6441  16.8184  19.0803  20.1676  22.2775  23.6931  24.6901  25.1637
    28.8306  30.5820  32.4125  32.7527  33.3627  36.6209  36.6646  36.7592
    39.2309  40.0838

          k = 0.2222 0.2222 0.2222 (   958 PWs)   bands (ev):

   -24.2004  -6.9962  -6.9280  -6.9280   9.7586  11.7280  11.7280  13.3459
    13.3459  13.9569  21.2079  22.4165  22.4165  24.9201  24.9201  25.0386
    26.9038  31.1091  31.1091  32.5312  34.7832  35.0041  35.0041  36.7027
    36.7027  37.2396

          k = 0.2222 0.2222 0.3333 (   957 PWs)   bands (ev):

   -24.1401  -7.4537  -6.9037  -6.8635   9.8877  11.5661  11.9196  12.6656
    13.8394  15.0488  20.4364  21.7865  23.1231  24.1489  24.9157  27.3613
    28.2081  28.2397  31.2856  32.2453  33.6241  35.1895  36.8029  37.6588
    38.6439  38.6470

          k = 0.2222 0.2222 0.4444 (   950 PWs)   bands (ev):

   -24.1000  -7.7586  -6.8594  -6.8207   9.8404  11.2526  11.8074  12.5615
    14.1004  17.0279  20.0680  20.9389  22.7345  24.0196  24.9391  25.5063
    30.1475  30.6764  31.1287  32.1481  33.4094  35.1265  35.8722  36.4376
    36.9506  40.9646

          k = 0.2222 0.3333 0.3333 (   963 PWs)   bands (ev):

   -24.0804  -7.3944  -7.3612  -6.8189   9.6105  11.2679  11.7739  13.0346
    14.7833  15.6926  19.6182  21.7199  23.5167  24.3214  26.6170  26.7657
    28.2819  29.0563  29.3051  31.5000  34.7674  35.3820  36.7861  37.3873
    38.8126  39.2061

          k = 0.2222 0.3333 0.4444 (   954 PWs)   bands (ev):

   -24.0408  -7.6787  -7.3275  -6.7766   9.2746  11.1035  11.6384  13.1095
    15.3207  17.7290  18.9987  20.8111  23.5102  24.1852  25.3214  26.9802
    29.1087  29.7783  31.2387  31.6439  33.9735  34.5493  35.0935  37.1277
    38.4529  39.6866

          k = 0.2222 0.4444 0.4444 (   962 PWs)   bands (ev):

   -24.0015  -7.6277  -7.6228  -6.7353   8.8087  11.2546  11.3435  13.1693
    17.5609  18.0696  18.4181  20.2081  23.3907  24.4605  24.9897  26.0946
    30.5666  30.8185  31.5155  32.0588  32.7587  34.8248  35.2607  35.4100
    37.0906  38.5847

          k = 0.3333 0.3333 0.3333 (   955 PWs)   bands (ev):

   -24.0214  -7.3342  -7.2900  -7.2900   9.6808  10.7672  10.7672  14.9493
    14.9493  16.4463  18.2448  23.7157  23.7157  25.0806  26.4363  26.4363
    28.6635  28.6635  29.1290  32.7673  33.4421  35.0121  35.0121  37.6542
    38.0139  38.0139

          k = 0.3333 0.3333 0.4444 (   962 PWs)   bands (ev):

   -23.9822  -7.6018  -7.2701  -7.2426   9.4771  10.2260  10.7497  15.0624
    15.8760  17.4011  18.6062  21.7408  24.9921  25.3521  25.7644  25.8420
    29.0379  30.5343  30.8091  32.3179  32.9814  33.3251  34.5877  36.5834
    36.5913  39.3884

          k = 0.3333 0.4444 0.4444 (   963 PWs)   bands (ev):

   -23.9433  -7.5526  -7.5480  -7.2093   9.2340  10.1906  10.2518  15.5465
    16.5203  17.9311  19.3505  21.3574  23.7814  25.6650  25.8326  26.6940
    30.6832  30.9437  31.3850  31.6345  32.3003  33.7982  34.0013  34.0085
    37.5892  37.7971

          k = 0.4444 0.4444 0.4444 (   955 PWs)   bands (ev):

   -23.9046  -7.5043  -7.4981  -7.4981   9.5248   9.6802   9.6802  15.5726
    18.0885  18.0885  20.0520  21.9336  21.9336  26.9173  26.9834  26.9834
    30.0728  31.1055  31.1055  31.7857  32.4650  32.8895  32.8895  34.9280
    38.0527  38.0527

     the Fermi energy is    10.6480 ev

!    total energy              =    -471.70057580 Ry
     total all-electron energy =    -17721.225305 Ry
     estimated scf accuracy    <       0.00001356 Ry
     smearing contrib. (-TS)   =       0.00020045 Ry
     internal energy E=F+TS    =    -471.70077625 Ry

     The total energy is F=E-TS. E is the sum of the following terms:
     one-electron contribution =      -7.18909527 Ry
     hartree contribution      =       8.89862599 Ry
     xc contribution           =     -73.16588961 Ry
     ewald contribution        =     -54.46890695 Ry
     one-center paw contrib.   =    -345.77551042 Ry

     convergence has been achieved in   3 iterations

     Writing all to output data dir ./work/POSCAR.save/

     init_run     :      0.22s CPU      0.24s WALL (       1 calls)
     electrons    :      1.02s CPU      1.36s WALL (       1 calls)

     Called by init_run:
     wfcinit      :      0.06s CPU      0.06s WALL (       1 calls)
     potinit      :      0.08s CPU      0.08s WALL (       1 calls)
     hinit0       :      0.08s CPU      0.08s WALL (       1 calls)

     Called by electrons:
     c_bands      :      0.87s CPU      1.13s WALL (       4 calls)
     sum_band     :      0.08s CPU      0.10s WALL (       4 calls)
     v_of_rho     :      0.00s CPU      0.00s WALL (       4 calls)
     newd         :      0.01s CPU      0.01s WALL (       4 calls)
     PAW_pot      :      0.09s CPU      0.14s WALL (       4 calls)
     mix_rho      :      0.00s CPU      0.00s WALL (       4 calls)

     Called by c_bands:
     init_us_2    :      0.01s CPU      0.01s WALL (     315 calls)
     init_us_2:cp :      0.00s CPU      0.01s WALL (     315 calls)
     cegterg      :      0.85s CPU      0.88s WALL (     140 calls)

     Called by *egterg:
     cdiaghg      :      0.28s CPU      0.29s WALL (     638 calls)
     h_psi        :      0.48s CPU      0.50s WALL (     708 calls)
     s_psi        :      0.01s CPU      0.01s WALL (     708 calls)
     g_psi        :      0.00s CPU      0.00s WALL (     533 calls)

     Called by h_psi:
     h_psi:calbec :      0.02s CPU      0.02s WALL (     708 calls)
     vloc_psi     :      0.45s CPU      0.47s WALL (     708 calls)
     add_vuspsi   :      0.01s CPU      0.01s WALL (     708 calls)

     General routines
     calbec       :      0.03s CPU      0.03s WALL (     848 calls)
     fft          :      0.05s CPU      0.06s WALL (      51 calls)
     ffts         :      0.03s CPU      0.03s WALL (       8 calls)
     fftw         :      0.47s CPU      0.50s WALL (   25306 calls)
     interpolate  :      0.03s CPU      0.03s WALL (       4 calls)

     Parallel routines

     PWSCF        :      1.37s CPU      2.19s WALL


   This run was terminated on:  22:40:28  15May2024            

=------------------------------------------------------------------------------=
   JOB DONE.
=------------------------------------------------------------------------------=
