
     Program PWSCF v.7.1 starts on 15May2024 at 22:40:29 

     This program is part of the open-source Quantum ESPRESSO suite
     for quantum simulation of materials; please cite
         "P. Giannozzi et al., J. Phys.:Condens. Matter 21 395502 (2009);
         "P. Giannozzi et al., J. Phys.:Condens. Matter 29 465901 (2017);
         "P. Giannozzi et al., J. Chem. Phys. 152 154105 (2020);
          URL http://www.quantum-espresso.org", 
     in publications or presentations arising from this work. More details at
     http://www.quantum-espresso.org/quote

     Parallel version (MPI & OpenMP), running on      10 processor cores
     Number of MPI processes:                10
     Threads/MPI process:                     1

     MPI processes distributed on     1 nodes
     14546 MiB available memory on the printing compute node when the environment starts

     Waiting for input...
     Reading input from standard input

     Current dimensions of program PWSCF are:
     Max number of different atomic species (ntypx) = 10
     Max number of k-points (npk) =  40000
     Max angular momentum in pseudopotentials (lmaxx) =  4

     Atomic positions and unit cell read from directory:
     ./work/POSCAR.save/

     file Ce.pbe-spdn-kjpaw_psl.1.0.0.UPF: wavefunction(s)  5D renormalized
     Message from routine setup:
     using ibrav=0 with symmetry is DISCOURAGED, use correct ibrav instead

     R & G space division:  proc/nbgrp/npool/nimage =      10
     Subspace diagonalization in iterative solution of the eigenvalue problem:
     a serial algorithm will be used


     Parallelization info
     --------------------
     sticks:   dense  smooth     PW     G-vecs:    dense   smooth      PW
     Min          56      47     14                 1013      751     136
     Max          57      48     15                 1014      753     137
     Sum         569     473    145                10131     7521    1365

     Using Slab Decomposition



     bravais-lattice index     =            0
     lattice parameter (alat)  =       6.3029  a.u.
     unit-cell volume          =     250.3945 (a.u.)^3
     number of atoms/cell      =            1
     number of atomic types    =            1
     number of electrons       =        11.00
     number of Kohn-Sham states=           26
     kinetic-energy cutoff     =      37.0000  Ry
     charge density cutoff     =     179.0000  Ry
     Exchange-correlation= SLA  PW   PBX  PBC
                           (   1   4   3   4   0   0   0)

     celldm(1)=   6.302917  celldm(2)=   0.000000  celldm(3)=   0.000000
     celldm(4)=   0.000000  celldm(5)=   0.000000  celldm(6)=   0.000000

     crystal axes: (cart. coord. in units of alat)
               a(1) = (   1.000000   0.000000   0.000000 )  
               a(2) = (   0.000000   1.000000   0.000000 )  
               a(3) = (   0.000000   0.000000   1.000000 )  

     reciprocal axes: (cart. coord. in units 2 pi/alat)
               b(1) = (  1.000000  0.000000  0.000000 )  
               b(2) = (  0.000000  1.000000  0.000000 )  
               b(3) = (  0.000000  0.000000  1.000000 )  


     PseudoPot. # 1 for Ce read from file:
     ./../../../../pseudo/psl100_PBE/Ce.pbe-spdn-kjpaw_psl.1.0.0.UPF
     MD5 check sum: 1a25380276e46fcecd5a173acdad072c
     Pseudo is Projector augmented-wave + core cor, Zval = 11.0
     Generated using 'atomic' code by A. Dal Corso  v.7.2
     Shape of augmentation charge: PSQ
     Using radial grid of 1255 points,  6 beta functions with: 
                l(1) =   0
                l(2) =   0
                l(3) =   1
                l(4) =   1
                l(5) =   2
                l(6) =   2
     Q(r) pseudized with 0 coefficients 


     atomic species   valence    mass     pseudopotential
        Ce            11.00   140.11600     Ce( 1.00)

     48 Sym. Ops., with inversion, found



   Cartesian axes

     site n.     atom                  positions (alat units)
         1           Ce  tau(   1) = (   0.0000000   0.0000000   0.0000000  )

     number of k points=    91  Methfessel-Paxton smearing, width (Ry)=  0.0200
                       cart. coord. in units 2pi/alat
        k(    1) = (   0.0000000   0.5000000   0.5000000), wk =   0.0219780
        k(    2) = (   0.0500000   0.5000000   0.5000000), wk =   0.0219780
        k(    3) = (   0.1000000   0.5000000   0.5000000), wk =   0.0219780
        k(    4) = (   0.1500000   0.5000000   0.5000000), wk =   0.0219780
        k(    5) = (   0.2000000   0.5000000   0.5000000), wk =   0.0219780
        k(    6) = (   0.2500000   0.5000000   0.5000000), wk =   0.0219780
        k(    7) = (   0.3000000   0.5000000   0.5000000), wk =   0.0219780
        k(    8) = (   0.3500000   0.5000000   0.5000000), wk =   0.0219780
        k(    9) = (   0.4000000   0.5000000   0.5000000), wk =   0.0219780
        k(   10) = (   0.4500000   0.5000000   0.5000000), wk =   0.0219780
        k(   11) = (   0.5000000   0.5000000   0.5000000), wk =   0.0219780
        k(   12) = (   0.4750000   0.4750000   0.4750000), wk =   0.0219780
        k(   13) = (   0.4500000   0.4500000   0.4500000), wk =   0.0219780
        k(   14) = (   0.4250000   0.4250000   0.4250000), wk =   0.0219780
        k(   15) = (   0.4000000   0.4000000   0.4000000), wk =   0.0219780
        k(   16) = (   0.3750000   0.3750000   0.3750000), wk =   0.0219780
        k(   17) = (   0.3500000   0.3500000   0.3500000), wk =   0.0219780
        k(   18) = (   0.3250000   0.3250000   0.3250000), wk =   0.0219780
        k(   19) = (   0.3000000   0.3000000   0.3000000), wk =   0.0219780
        k(   20) = (   0.2750000   0.2750000   0.2750000), wk =   0.0219780
        k(   21) = (   0.2500000   0.2500000   0.2500000), wk =   0.0219780
        k(   22) = (   0.2250000   0.2250000   0.2250000), wk =   0.0219780
        k(   23) = (   0.2000000   0.2000000   0.2000000), wk =   0.0219780
        k(   24) = (   0.1750000   0.1750000   0.1750000), wk =   0.0219780
        k(   25) = (   0.1500000   0.1500000   0.1500000), wk =   0.0219780
        k(   26) = (   0.1250000   0.1250000   0.1250000), wk =   0.0219780
        k(   27) = (   0.1000000   0.1000000   0.1000000), wk =   0.0219780
        k(   28) = (   0.0750000   0.0750000   0.0750000), wk =   0.0219780
        k(   29) = (   0.0500000   0.0500000   0.0500000), wk =   0.0219780
        k(   30) = (   0.0250000   0.0250000   0.0250000), wk =   0.0219780
        k(   31) = (   0.0000000   0.0000000   0.0000000), wk =   0.0219780
        k(   32) = (   0.0500000   0.0000000   0.0000000), wk =   0.0219780
        k(   33) = (   0.1000000   0.0000000   0.0000000), wk =   0.0219780
        k(   34) = (   0.1500000   0.0000000   0.0000000), wk =   0.0219780
        k(   35) = (   0.2000000   0.0000000   0.0000000), wk =   0.0219780
        k(   36) = (   0.2500000   0.0000000   0.0000000), wk =   0.0219780
        k(   37) = (   0.3000000   0.0000000   0.0000000), wk =   0.0219780
        k(   38) = (   0.3500000   0.0000000   0.0000000), wk =   0.0219780
        k(   39) = (   0.4000000   0.0000000   0.0000000), wk =   0.0219780
        k(   40) = (   0.4500000   0.0000000   0.0000000), wk =   0.0219780
        k(   41) = (   0.5000000   0.0000000   0.0000000), wk =   0.0219780
        k(   42) = (   0.5000000   0.0500000   0.0000000), wk =   0.0219780
        k(   43) = (   0.5000000   0.1000000   0.0000000), wk =   0.0219780
        k(   44) = (   0.5000000   0.1500000   0.0000000), wk =   0.0219780
        k(   45) = (   0.5000000   0.2000000   0.0000000), wk =   0.0219780
        k(   46) = (   0.5000000   0.2500000   0.0000000), wk =   0.0219780
        k(   47) = (   0.5000000   0.3000000   0.0000000), wk =   0.0219780
        k(   48) = (   0.5000000   0.3500000   0.0000000), wk =   0.0219780
        k(   49) = (   0.5000000   0.4000000   0.0000000), wk =   0.0219780
        k(   50) = (   0.5000000   0.4500000   0.0000000), wk =   0.0219780
        k(   51) = (   0.5000000   0.5000000   0.0000000), wk =   0.0219780
        k(   52) = (   0.4750000   0.4750000   0.0000000), wk =   0.0219780
        k(   53) = (   0.4500000   0.4500000   0.0000000), wk =   0.0219780
        k(   54) = (   0.4250000   0.4250000   0.0000000), wk =   0.0219780
        k(   55) = (   0.4000000   0.4000000   0.0000000), wk =   0.0219780
        k(   56) = (   0.3750000   0.3750000   0.0000000), wk =   0.0219780
        k(   57) = (   0.3500000   0.3500000   0.0000000), wk =   0.0219780
        k(   58) = (   0.3250000   0.3250000   0.0000000), wk =   0.0219780
        k(   59) = (   0.3000000   0.3000000   0.0000000), wk =   0.0219780
        k(   60) = (   0.2750000   0.2750000   0.0000000), wk =   0.0219780
        k(   61) = (   0.2500000   0.2500000   0.0000000), wk =   0.0219780
        k(   62) = (   0.2250000   0.2250000   0.0000000), wk =   0.0219780
        k(   63) = (   0.2000000   0.2000000   0.0000000), wk =   0.0219780
        k(   64) = (   0.1750000   0.1750000   0.0000000), wk =   0.0219780
        k(   65) = (   0.1500000   0.1500000   0.0000000), wk =   0.0219780
        k(   66) = (   0.1250000   0.1250000   0.0000000), wk =   0.0219780
        k(   67) = (   0.1000000   0.1000000   0.0000000), wk =   0.0219780
        k(   68) = (   0.0750000   0.0750000   0.0000000), wk =   0.0219780
        k(   69) = (   0.0500000   0.0500000   0.0000000), wk =   0.0219780
        k(   70) = (   0.0250000   0.0250000   0.0000000), wk =   0.0219780
        k(   71) = (   0.0000000   0.0000000   0.0000000), wk =   0.0219780
        k(   72) = (   0.0250000   0.0250000   0.0250000), wk =   0.0219780
        k(   73) = (   0.0500000   0.0500000   0.0500000), wk =   0.0219780
        k(   74) = (   0.0750000   0.0750000   0.0750000), wk =   0.0219780
        k(   75) = (   0.1000000   0.1000000   0.1000000), wk =   0.0219780
        k(   76) = (   0.1250000   0.1250000   0.1250000), wk =   0.0219780
        k(   77) = (   0.1500000   0.1500000   0.1500000), wk =   0.0219780
        k(   78) = (   0.1750000   0.1750000   0.1750000), wk =   0.0219780
        k(   79) = (   0.2000000   0.2000000   0.2000000), wk =   0.0219780
        k(   80) = (   0.2250000   0.2250000   0.2250000), wk =   0.0219780
        k(   81) = (   0.2500000   0.2500000   0.2500000), wk =   0.0219780
        k(   82) = (   0.2750000   0.2750000   0.2750000), wk =   0.0219780
        k(   83) = (   0.3000000   0.3000000   0.3000000), wk =   0.0219780
        k(   84) = (   0.3250000   0.3250000   0.3250000), wk =   0.0219780
        k(   85) = (   0.3500000   0.3500000   0.3500000), wk =   0.0219780
        k(   86) = (   0.3750000   0.3750000   0.3750000), wk =   0.0219780
        k(   87) = (   0.4000000   0.4000000   0.4000000), wk =   0.0219780
        k(   88) = (   0.4250000   0.4250000   0.4250000), wk =   0.0219780
        k(   89) = (   0.4500000   0.4500000   0.4500000), wk =   0.0219780
        k(   90) = (   0.4750000   0.4750000   0.4750000), wk =   0.0219780
        k(   91) = (   0.5000000   0.5000000   0.5000000), wk =   0.0219780

     Dense  grid:    10131 G-vectors     FFT dimensions: (  27,  27,  27)

     Smooth grid:     7521 G-vectors     FFT dimensions: (  25,  25,  25)

     Estimated max dynamical RAM per process >       4.32 MB

     Estimated total dynamical RAM >      43.21 MB

     The potential is recalculated from file :
     ./work/POSCAR.save/charge-density

     Starting wfcs are   13 randomized atomic wfcs +   13 random wfcs
     Checking if some PAW data can be deallocated... 

     Band Structure Calculation
     Davidson diagonalization with overlap

     ethr =  6.64E-07,  avg # of iterations = 18.1

     total cpu time spent up to now is        3.5 secs

     End of band structure calculation

          k = 0.0000 0.5000 0.5000 (   952 PWs)   bands (ev):

   -24.0665  -7.7507  -7.7507  -6.0894   8.2482  10.9442  14.0488  14.0488
    15.7127  15.7127  18.9294  21.7698  22.8778  22.8778  22.9493  23.9106
    28.8877  31.2659  31.2659  35.1447  35.5762  35.6422  35.9852  35.9852
    40.8008  40.8008

          k = 0.0500 0.5000 0.5000 (   964 PWs)   bands (ev):

   -24.0624  -7.7455  -7.7455  -6.1295   8.2715  11.0662  13.6609  13.6609
    16.1322  16.1322  18.9361  21.1432  22.9353  22.9353  23.5656  23.9122
    28.9795  31.2827  31.2827  35.0347  35.4535  35.6697  35.7392  35.7392
    41.0407  41.1166

          k = 0.1000 0.5000 0.5000 (   952 PWs)   bands (ev):

   -24.0505  -7.7302  -7.7302  -6.2437   8.3407  11.4265  12.9545  12.9545
    16.9267  16.9267  18.9557  20.1758  23.1123  23.1123  23.9136  24.4844
    29.2718  31.3323  31.3323  34.7289  35.1265  35.1463  35.1463  35.7516
    39.6958  40.4996

          k = 0.1500 0.5000 0.5000 (   968 PWs)   bands (ev):

   -24.0319  -7.7063  -7.7063  -6.4172   8.4530  12.0083  12.2308  12.2308
    17.7747  17.7747  18.9865  19.2097  23.4212  23.4212  23.9032  25.3185
    29.8045  31.4114  31.4114  34.2846  34.4237  34.4237  34.6787  35.8858
    37.6794  39.8511

          k = 0.2000 0.5000 0.5000 (   960 PWs)   bands (ev):

   -24.0083  -7.6759  -7.6759  -6.6281   8.6040  11.5595  11.5595  12.7876
    18.2954  18.5764  18.5764  19.0260  23.8589  23.8771  23.8771  25.9824
    30.6024  31.5148  31.5148  33.7005  33.7005  33.7658  34.1890  35.7406
    36.0687  39.2171

          k = 0.2500 0.5000 0.5000 (   968 PWs)   bands (ev):

   -23.9819  -7.6418  -7.6418  -6.8532   8.7858  10.9661  10.9661  13.7362
    17.4559  19.0705  19.2761  19.2761  23.7428  24.4843  24.4843  26.4689
    31.6287  31.6319  31.6319  33.0490  33.0490  33.2231  33.7129  33.9537
    36.2935  38.6725

          k = 0.3000 0.5000 0.5000 (   964 PWs)   bands (ev):

   -23.9552  -7.6073  -7.6073  -7.0699   8.9866  10.4648  10.4648  14.8234
    16.7106  19.1158  19.8437  19.8437  23.4969  25.2153  25.2153  26.8164
    31.7400  31.7400  32.3452  32.5315  32.5315  32.7480  32.7790  33.2871
    36.5492  38.2953

          k = 0.3500 0.5000 0.5000 (   956 PWs)   bands (ev):

   -23.9310  -7.5758  -7.5758  -7.2590   9.1887  10.0653  10.0653  16.0146
    16.0818  19.1573  20.2734  20.2734  23.0485  25.9953  25.9953  27.0640
    31.0906  31.7658  31.7658  32.2537  32.2537  32.2867  32.9351  33.8832
    36.8169  38.2168

          k = 0.4000 0.5000 0.5000 (   948 PWs)   bands (ev):

   -23.9116  -7.5506  -7.5506  -7.4051   9.3676   9.7748   9.7748  15.5965
    17.2645  19.1909  20.5726  20.5726  22.3474  26.7023  26.7023  27.2340
    30.1968  31.6768  31.6768  31.9342  32.2710  32.2710  32.6733  34.6947
    37.0659  38.6511

          k = 0.4500 0.5000 0.5000 (   960 PWs)   bands (ev):

   -23.8991  -7.5343  -7.5343  -7.4972   9.4934   9.5983   9.5983  15.2862
    18.4828  19.2125  20.7493  20.7493  21.4452  27.1942  27.1942  27.3349
    29.6872  31.6313  31.6313  31.7082  32.3905  32.3905  32.5119  35.0803
    37.2505  37.7097

          k = 0.5000 0.5000 0.5000 (   968 PWs)   bands (ev):

   -23.8948  -7.5287  -7.5287  -7.5287   9.5392   9.5392   9.5392  15.1789
    19.2201  19.2201  20.8078  20.8078  20.8078  27.3686  27.3686  27.3686
    29.5253  31.6301  31.6301  31.6301  32.4575  32.4575  32.4575  35.1761
    37.3201  37.3201

          k = 0.4750 0.4750 0.4750 (   967 PWs)   bands (ev):

   -23.8980  -7.5245  -7.5232  -7.5232   9.5354   9.5681   9.5681  15.2598
    18.8904  18.8904  20.6432  21.1377  21.1377  27.2667  27.2792  27.2792
    29.6434  31.5443  31.5443  31.8170  32.3029  32.5188  32.5188  35.1143
    37.4916  37.4916

          k = 0.4500 0.4500 0.4500 (   955 PWs)   bands (ev):

   -23.9077  -7.5118  -7.5068  -7.5068   9.5275   9.6545   9.6545  15.4979
    18.2436  18.2436  20.1861  21.7801  21.7801  26.9920  27.0447  27.0447
    29.9766  31.2129  31.2129  31.8991  32.3225  32.7966  32.7966  34.9624
    37.9388  37.9388

          k = 0.4250 0.4250 0.4250 (   952 PWs)   bands (ev):

   -23.9236  -7.4906  -7.4796  -7.4796   9.5240   9.7976   9.7976  15.8812
    17.5274  17.5274  19.5197  22.4694  22.4694  26.6114  26.7415  26.7415
    30.4653  30.6769  30.6769  31.3554  33.0095  33.2788  33.2788  34.8230
    38.3309  38.3309

          k = 0.4000 0.4000 0.4000 (   952 PWs)   bands (ev):

   -23.9454  -7.4608  -7.4418  -7.4418   9.5351   9.9957   9.9957  16.3928
    16.8018  16.8018  18.7279  23.1023  23.1023  26.1843  26.4602  26.4602
    30.0505  30.0505  30.7518  31.0452  33.5795  33.8582  33.8582  34.9699
    38.0549  38.0549

          k = 0.3750 0.3750 0.3750 (   958 PWs)   bands (ev):

   -23.9725  -7.4221  -7.3941  -7.3941   9.5690  10.2462  10.2462  16.0869
    16.0869  17.0128  17.8778  23.5697  23.5697  25.7495  26.3071  26.3071
    29.4208  29.4208  30.1334  31.6733  33.6759  34.4248  34.4248  35.7368
    37.7945  37.7945

          k = 0.3500 0.3500 0.3500 (   955 PWs)   bands (ev):

   -24.0041  -7.3745  -7.3367  -7.3367   9.6287  10.5452  10.5452  15.3937
    15.3937  17.0070  17.7325  23.7536  23.7536  25.3338  26.3559  26.3559
    28.8847  28.8847  29.5246  32.3263  33.5474  34.8516  34.8516  36.8478
    37.8138  37.8138

          k = 0.3250 0.3250 0.3250 (   955 PWs)   bands (ev):

   -24.0396  -7.3179  -7.2706  -7.2706   9.7103  10.8857  10.8857  14.7323
    14.7323  16.1747  18.5077  23.6598  23.6598  24.9622  26.4518  26.4518
    28.6244  28.6244  28.9391  32.9879  33.3884  35.0559  35.0559  38.0629
    38.1600  38.1600

          k = 0.3000 0.3000 0.3000 (   958 PWs)   bands (ev):

   -24.0781  -7.2525  -7.1966  -7.1966   9.8000  11.2537  11.2537  14.1180
    14.1180  15.4061  19.3168  23.4093  23.4093  24.6672  26.2884  26.2884
    28.3849  28.8467  28.8467  33.2300  33.6514  35.0938  35.0938  38.6484
    38.6484  39.1410

          k = 0.2750 0.2750 0.2750 (   955 PWs)   bands (ev):

   -24.1187  -7.1788  -7.1161  -7.1161   9.8705  11.6131  11.6131  13.5868
    13.5868  14.7471  20.0997  23.0974  23.0974  24.5044  25.8885  25.8885
    27.8670  29.4465  29.4465  33.0843  34.2653  35.0691  35.0691  38.7115
    38.7115  38.7902

          k = 0.2500 0.2500 0.2500 (   958 PWs)   bands (ev):

   -24.1602  -7.0975  -7.0306  -7.0306   9.8789  11.8499  11.8499  13.2514
    13.2514  14.2515  20.7578  22.7707  22.7707  24.5692  25.4206  25.4206
    27.3887  30.2120  30.2120  32.9025  34.7335  35.0401  35.0401  37.7385
    37.9067  37.9067

          k = 0.2250 0.2250 0.2250 (   958 PWs)   bands (ev):

   -24.2018  -7.0099  -6.9418  -6.9418   9.7780  11.7583  11.7583  13.3147
    13.3147  13.9737  21.1756  22.4508  22.4508  24.9695  24.9695  24.9724
    26.9521  31.0204  31.0204  32.5815  34.8044  35.0100  35.0100  36.8189
    36.8189  37.2414

          k = 0.2000 0.2000 0.2000 (   946 PWs)   bands (ev):

   -24.2423  -6.9177  -6.8518  -6.8518   9.5477  11.4173  11.4173  13.6931
    13.6931  13.9374  21.3314  22.1482  22.1482  24.5735  24.5735  25.7301
    26.5589  31.7403  31.7403  31.9535  34.5437  34.8857  34.8857  35.9543
    35.9543  37.4831

          k = 0.1750 0.1750 0.1750 (   943 PWs)   bands (ev):

   -24.2808  -6.8236  -6.7632  -6.7632   9.2151  11.0203  11.0203  14.1158
    14.1855  14.1855  21.3162  21.8683  21.8683  24.2559  24.2559  26.2101
    26.7414  30.9978  32.0303  32.0303  34.4018  34.6865  34.6865  35.7029
    35.7029  38.0488

          k = 0.1500 0.1500 0.1500 (   952 PWs)   bands (ev):

   -24.3164  -6.7304  -6.6786  -6.6786   8.8332  10.6389  10.6389  14.4527
    14.7096  14.7096  21.2238  21.6141  21.6141  24.0349  24.0349  25.9065
    27.8909  29.8941  31.5095  31.5095  34.4484  35.0574  35.0574  35.8225
    35.8225  38.6998

          k = 0.1250 0.1250 0.1250 (   952 PWs)   bands (ev):

   -24.3481  -6.6416  -6.6005  -6.6005   8.4509  10.2974  10.2974  14.8905
    15.2258  15.2258  21.1094  21.3883  21.3883  23.9274  23.9274  25.6488
    28.6250  29.2590  30.5489  30.5489  34.6331  35.7924  35.7924  36.1594
    36.1594  39.3437

          k = 0.1000 0.1000 0.1000 (   964 PWs)   bands (ev):

   -24.3751  -6.5613  -6.5319  -6.5319   8.1028  10.0073  10.0073  15.3779
    15.7032  15.7032  21.0014  21.1941  21.1941  23.9485  23.9486  25.4375
    27.6380  29.4943  29.4943  30.4048  34.9445  36.2773  36.2773  36.9876
    36.9876  39.8932

          k = 0.0750 0.0750 0.0750 (   955 PWs)   bands (ev):

   -24.3969  -6.4934  -6.4753  -6.4753   7.8125   9.7755   9.7755  15.8634
    16.1126  16.1126  20.9152  21.0356  21.0356  24.1093  24.1093  25.2728
    26.6980  28.4635  28.4635  31.5213  35.4208  36.6805  36.6805  38.0168
    38.0168  40.1457

          k = 0.0500 0.0500 0.0500 (   946 PWs)   bands (ev):

   -24.4128  -6.4416  -6.4330  -6.4330   7.5954   9.6067   9.6067  16.2878
    16.4268  16.4268  20.8574  20.9174  20.9174  24.4083  24.4083  25.1551
    25.9376  27.5138  27.5138  32.3980  36.1341  37.1196  37.1196  38.9583
    38.9583  39.8969

          k = 0.0250 0.0250 0.0250 (   937 PWs)   bands (ev):

   -24.4226  -6.4091  -6.4069  -6.4069   7.4613   9.5042   9.5042  16.5843
    16.6243  16.6243  20.8277  20.8441  20.8441  24.8036  24.8036  25.0843
    25.4329  26.7177  26.7177  32.9237  37.0863  37.5747  37.5747  38.9695
    38.9695  39.3066

          k = 0.0000 0.0000 0.0000 (   949 PWs)   bands (ev):

   -24.4258  -6.3981  -6.3981  -6.3981   7.4160   9.4697   9.4697  16.6917
    16.6917  16.6917  20.8193  20.8193  20.8193  25.0607  25.0607  25.0607
    25.2543  26.3253  26.3253  33.0924  37.8554  37.8554  37.8554  38.6886
    38.6886  38.6886

          k = 0.0500 0.0000 0.0000 (   945 PWs)   bands (ev):

   -24.4215  -6.4436  -6.3943  -6.3943   7.4754   9.4859   9.5455  16.5321
    16.5321  16.7007  20.5686  20.9835  20.9835  24.3854  25.1573  25.1573
    25.4608  26.4696  27.0738  32.8841  37.0417  37.0417  38.1433  38.2368
    39.5144  39.5144

          k = 0.1000 0.0000 0.0000 (   957 PWs)   bands (ev):

   -24.4089  -6.5735  -6.3832  -6.3832   7.6406   9.5336   9.7743  16.1297
    16.1297  16.7270  19.9752  21.3905  21.3905  23.3897  25.4538  25.4538
    25.7840  27.0384  28.2894  32.3738  35.9788  35.9788  37.0958  38.0283
    38.8924  40.5136

          k = 0.1500 0.0000 0.0000 (   960 PWs)   bands (ev):

   -24.3891  -6.7692  -6.3659  -6.3659   7.8801   9.6100  10.1529  15.6170
    15.6170  16.7685  19.2774  21.8876  21.8876  22.4313  25.9616  25.9616
    25.9806  28.0296  29.6152  31.7424  34.9798  34.9798  35.3417  36.8511
    39.9227  41.1138

          k = 0.2000 0.0000 0.0000 (   952 PWs)   bands (ev):

   -24.3640  -7.0055  -6.3440  -6.3440   8.1617   9.7101  10.6544  15.0868
    15.0868  16.8219  18.6281  21.5526  22.3715  22.3715  26.1067  26.6720
    26.6720  29.2091  31.0097  31.1010  33.4495  34.0883  34.0883  35.9564
    41.1247  41.3604

          k = 0.2500 0.0000 0.0000 (   956 PWs)   bands (ev):

   -24.3360  -7.2558  -6.3195  -6.3195   8.4646   9.8267  11.2113  14.5908
    14.5908  16.8824  18.1396  20.7708  22.8012  22.8012  26.1516  27.5321
    27.5321  30.3695  30.5057  31.6917  32.4564  33.3516  33.3516  35.2951
    41.4726  41.4726

          k = 0.3000 0.0000 0.0000 (   952 PWs)   bands (ev):

   -24.3076  -7.4953  -6.2948  -6.2948   8.7767   9.9500  11.7120  14.1587
    14.1587  16.9447  17.9286  20.0999  23.1716  23.1716  25.9863  28.4234
    28.4234  29.9878  30.1102  31.3864  32.8625  32.8625  33.9400  35.0884
    41.4948  41.4948

          k = 0.3500 0.0000 0.0000 (   956 PWs)   bands (ev):

   -24.2818  -7.7032  -6.2724  -6.2724   9.0845  10.0678  12.0367  13.8082
    13.8082  17.0022  18.1053  19.5544  23.4833  23.4833  25.3664  29.1316
    29.1316  29.2070  29.5668  31.6720  32.8065  32.8065  35.4391  35.6811
    41.1749  41.1749

          k = 0.4000 0.0000 0.0000 (   948 PWs)   bands (ev):

   -24.2612  -7.8631  -6.2544  -6.2544   9.3636  10.1664  12.1468  13.5509
    13.5509  17.0490  18.6894  19.1495  23.7282  23.7282  24.2641  28.8939
    29.2566  29.4543  29.4543  31.4973  33.3526  33.3526  36.9168  36.9498
    39.8709  39.8709

          k = 0.4500 0.0000 0.0000 (   944 PWs)   bands (ev):

   -24.2478  -7.9635  -6.2429  -6.2429   9.5704  10.2323  12.1264  13.3938
    13.3938  17.0795  18.8995  19.5298  23.0409  23.8886  23.8886  28.8825
    29.0666  29.4978  29.4978  31.2397  34.2978  34.2978  38.2915  38.4121
    38.4121  38.5345

          k = 0.5000 0.0000 0.0000 (   916 PWs)   bands (ev):

   -24.2432  -7.9977  -6.2388  -6.2388   9.6491  10.2556  12.1003  13.3411
    13.3411  17.0902  18.8149  20.0785  22.3580  23.9450  23.9450  28.9108
    29.0027  29.4855  29.4855  31.1268  34.9147  34.9147  37.6381  37.6381
    39.1499  40.0543

          k = 0.5000 0.0500 0.0000 (   942 PWs)   bands (ev):

   -24.2390  -7.9920  -6.2813  -6.2353   9.7200  10.3221  11.8360  13.3559
    13.5406  16.9654  18.9625  20.0593  22.3758  23.7518  24.1563  28.1962
    28.9330  29.2107  30.3234  31.7330  34.7539  34.9254  37.2293  37.6891
    38.5353  40.1477

          k = 0.5000 0.1000 0.0000 (   938 PWs)   bands (ev):

   -24.2268  -7.9751  -6.4025  -6.2249   9.8836  10.5626  11.2982  13.3996
    13.9003  16.6349  19.3823  19.9938  22.4270  23.2991  24.7469  27.2401
    28.0362  29.9888  31.3676  32.7572  34.3356  34.9577  36.5095  37.0745
    37.8465  40.2150

          k = 0.5000 0.1500 0.0000 (   944 PWs)   bands (ev):

   -24.2077  -7.9486  -6.5859  -6.2086  10.0536  10.7001  11.0389  13.4693
    14.2490  16.1887  19.8607  20.0098  22.5035  22.7982  25.6267  26.3401
    27.1965  31.0340  32.3922  33.5901  33.7746  35.0089  35.3370  36.0692
    38.1217  40.3128

          k = 0.5000 0.2000 0.0000 (   944 PWs)   bands (ev):

   -24.1833  -7.9148  -6.8083  -6.1880  10.1160  10.2136  11.7292  13.5604
    14.5634  15.7073  19.6385  20.7467  22.3925  22.5835  25.5162  26.5356
    26.7160  31.9741  33.2328  33.3452  33.6353  33.7346  35.0747  36.5270
    38.5299  40.4244

          k = 0.5000 0.2500 0.0000 (   944 PWs)   bands (ev):

   -24.1562  -7.8769  -7.0447  -6.1650   9.5818  10.3753  12.5692  13.6660
    14.8499  15.2448  19.3382  21.4677  22.1426  22.6155  24.7825  26.1902
    27.9605  31.0538  32.8137  33.1286  34.0114  34.1760  35.1499  37.6325
    39.0749  40.4614

          k = 0.5000 0.3000 0.0000 (   948 PWs)   bands (ev):

   -24.1287  -7.8385  -7.2718  -6.1418   9.1202  10.5386  13.4866  13.7770
    14.8352  15.1130  19.0228  22.0429  22.0484  22.5250  24.1528  26.3138
    29.3221  29.3261  32.2638  32.5444  34.8494  35.2273  35.4271  38.8433
    39.7205  39.9808

          k = 0.5000 0.3500 0.0000 (   952 PWs)   bands (ev):

   -24.1038  -7.8034  -7.4695  -6.1208   8.7466  10.6935  13.8824  14.3843
    14.4996  15.3476  18.7886  22.0686  22.2915  22.4555  23.6412  26.9063
    27.5906  30.7893  31.8370  32.0255  35.2996  35.3568  36.9582  38.6617
    39.8466  40.3673

          k = 0.5000 0.4000 0.0000 (   954 PWs)   bands (ev):

   -24.0838  -7.7753  -7.6220  -6.1040   8.4722  10.8243  13.9700  14.2518
    15.1239  15.5392  18.7284  22.0376  22.2208  22.6964  23.2621  25.9884
    27.7531  31.5234  31.6217  32.3315  35.3594  35.7086  37.2187  38.5189
    39.0574  40.4427

          k = 0.5000 0.4500 0.0000 (   960 PWs)   bands (ev):

   -24.0709  -7.7571  -7.7180  -6.0932   8.3046  10.9127  14.0283  14.0999
    15.5731  15.6674  18.8406  21.8418  22.5416  22.8333  23.0283  24.6341
    28.5434  31.3309  31.3598  33.9246  35.4041  35.9163  36.0909  37.3939
    39.9852  40.7196

          k = 0.5000 0.5000 0.0000 (   952 PWs)   bands (ev):

   -24.0665  -7.7507  -7.7507  -6.0894   8.2482  10.9442  14.0488  14.0488
    15.7127  15.7127  18.9294  21.7698  22.8778  22.8778  22.9493  23.9106
    28.8877  31.2659  31.2659  35.1447  35.5762  35.6422  35.9852  35.9852
    40.8008  40.8008

          k = 0.4750 0.4750 0.0000 (   956 PWs)   bands (ev):

   -24.0687  -7.7447  -7.7436  -6.0913   8.2764  10.9283  14.0526  14.0603
    15.6662  15.6686  18.8793  21.8032  22.5501  22.9889  23.0072  24.2867
    28.7214  31.0820  31.5210  34.5350  35.0078  35.8693  36.5563  36.5655
    40.4994  40.5787

          k = 0.4500 0.4500 0.0000 (   964 PWs)   bands (ev):

   -24.0754  -7.7264  -7.7222  -6.0970   8.3602  10.8812  14.0644  14.0946
    15.5246  15.5384  18.7606  21.7912  22.1344  23.1069  23.3652  24.9489
    28.3744  30.6192  32.1428  33.6295  34.2814  36.4601  37.2890  37.3659
    39.8440  40.0030

          k = 0.4250 0.4250 0.0000 (   956 PWs)   bands (ev):

   -24.0863  -7.6961  -7.6868  -6.1061   8.4969  10.8054  14.0857  14.1517
    15.2861  15.3277  18.6362  21.3748  22.2125  23.3006  23.8886  25.6324
    28.0543  30.0234  32.6983  32.9567  33.5539  37.2588  38.0210  38.0576
    39.0765  39.2271

          k = 0.4000 0.4000 0.0000 (   948 PWs)   bands (ev):

   -24.1012  -7.6538  -7.6380  -6.1187   8.6817  10.7050  14.1184  14.2309
    14.9568  15.0453  18.5536  20.9284  22.4276  23.5659  24.5181  26.2138
    27.9310  29.3912  31.7710  32.8333  33.8840  37.9676  38.3564  38.4700
    38.5025  38.7306

          k = 0.3750 0.3750 0.0000 (   946 PWs)   bands (ev):

   -24.1197  -7.5998  -7.5767  -6.1343   8.9052  10.5869  14.1651  14.3317
    14.5537  14.7042  18.5324  20.5621  22.6465  23.8962  25.2031  26.5517
    28.1831  28.7826  30.8606  32.1224  34.8842  37.3264  37.4566  38.6214
    39.2446  39.3872

          k = 0.3500 0.3500 0.0000 (   946 PWs)   bands (ev):

   -24.1414  -7.5345  -7.5039  -6.1526   9.1492  10.4645  14.0992  14.2284
    14.3233  14.4532  18.5723  20.2895  22.8163  24.2814  25.8764  26.7247
    28.2638  28.7621  29.9791  31.4234  35.8567  36.4899  36.6454  38.4953
    39.9350  40.1775

          k = 0.3250 0.3250 0.0000 (   946 PWs)   bands (ev):

   -24.1656  -7.4585  -7.4209  -6.1732   9.3740  10.3672  13.6154  13.9297
    14.3109  14.5943  18.6657  20.1094  22.9028  24.7037  26.3590  26.9458
    28.0092  29.1441  29.4645  30.7384  35.5611  35.6529  37.1741  38.2497
    40.0078  40.2839

          k = 0.3000 0.3000 0.0000 (   951 PWs)   bands (ev):

   -24.1918  -7.3728  -7.3291  -6.1955   9.4988  10.3547  13.1201  13.5623
    14.4148  14.7534  18.8032  20.0133  22.9034  25.1237  26.3492  27.2968
    28.3106  28.3937  30.0695  30.1692  34.7824  34.8393  37.9595  38.2145
    39.0130  40.3607

          k = 0.2750 0.2750 0.0000 (   947 PWs)   bands (ev):

   -24.2193  -7.2785  -7.2304  -6.2190   9.4608  10.4503  12.6274  13.2778
    14.5419  14.9288  18.9767  19.9887  22.8445  25.4363  26.0224  27.7664
    27.8318  28.9717  29.4200  30.7740  34.0780  34.1357  37.6619  37.7264
    39.5049  40.2023

          k = 0.2500 0.2500 0.0000 (   959 PWs)   bands (ev):

   -24.2475  -7.1773  -7.1269  -6.2432   9.3081  10.5454  12.1478  13.1514
    14.6932  15.1180  19.1785  20.0209  22.7638  25.4179  25.6391  27.6794
    28.2956  28.7927  29.6765  31.1220  33.4304  33.7910  36.6234  37.3761
    39.9157  40.4942

          k = 0.2250 0.2250 0.0000 (   949 PWs)   bands (ev):

   -24.2755  -7.0711  -7.0208  -6.2674   9.0991  10.5333  11.6900  13.2427
    14.8691  15.3183  19.4013  20.0937  22.6967  25.0027  25.2788  28.0000
    28.1921  28.7612  30.1910  31.1584  33.0583  33.7636  35.6726  37.1145
    39.5835  40.3506

          k = 0.2000 0.2000 0.0000 (   945 PWs)   bands (ev):

   -24.3029  -6.9626  -6.9148  -6.2909   8.8599  10.4084  11.2610  13.5385
    15.0690  15.5258  19.6370  20.1896  22.6733  24.4052  24.9685  27.6227
    28.5755  28.9128  30.2338  31.2566  33.2229  33.3957  35.4241  36.8855
    39.2501  40.0571

          k = 0.1750 0.1750 0.0000 (   949 PWs)   bands (ev):

   -24.3288  -6.8546  -6.8116  -6.3134   8.6043  10.2263  10.8669  13.9719
    15.2911  15.7359  19.8764  20.2919  22.7188  23.7641  24.7227  27.0902
    28.6087  29.2625  29.8385  31.7356  32.4638  33.8847  35.9294  36.6976
    38.9376  39.7923

          k = 0.1500 0.1500 0.0000 (   949 PWs)   bands (ev):

   -24.3526  -6.7504  -6.7140  -6.3341   8.3448  10.0364  10.5131  14.4793
    15.5317  15.9431  20.1085  20.3879  22.8519  23.1326  24.5525  26.6013
    28.0504  29.2623  30.0005  31.3568  32.5251  34.7842  36.5612  36.6724
    38.6575  39.5632

          k = 0.1250 0.1250 0.0000 (   949 PWs)   bands (ev):

   -24.3739  -6.6535  -6.6250  -6.3526   8.0949   9.8647  10.2046  15.0126
    15.7849  16.1406  20.3212  20.4738  22.5357  23.0808  24.4680  26.1638
    27.4128  28.6388  30.2855  30.7528  33.4135  35.7856  36.4913  37.4803
    38.4157  39.3762

          k = 0.1000 0.1000 0.0000 (   959 PWs)   bands (ev):

   -24.3920  -6.5676  -6.5475  -6.3685   7.8685   9.7218   9.9456  15.5316
    16.0409  16.3204  20.5028  20.5543  21.9920  23.4037  24.4759  25.7863
    26.7760  28.0204  29.2554  31.4809  34.3755  36.5112  36.8286  38.2154
    38.2869  39.2442

          k = 0.0750 0.0750 0.0000 (   953 PWs)   bands (ev):

   -24.4065  -6.4963  -6.4840  -6.3812   7.6785   9.6109   9.7399  15.9969
    16.2848  16.4737  20.6368  20.6447  21.5213  23.8108  24.5757  25.4784
    26.1899  27.4354  28.2930  32.1353  35.3728  36.6563  37.8399  38.0584
    38.9960  39.2204

          k = 0.0500 0.0500 0.0000 (   945 PWs)   bands (ev):

   -24.4172  -6.4426  -6.4369  -6.3905   7.5352   9.5322   9.5906  16.3682
    16.4939  16.5916  20.7210  20.7436  21.1486  24.2842  24.7517  25.2497
    25.7030  26.9114  27.4213  32.6539  36.3700  36.9664  37.9458  38.5210
    39.2665  39.5915

          k = 0.0250 0.0250 0.0000 (   941 PWs)   bands (ev):

   -24.4236  -6.4093  -6.4079  -6.3962   7.4462   9.4853   9.5001  16.6085
    16.6391  16.6661  20.7910  20.8007  20.9048  24.7762  24.9549  25.1085
    25.3727  26.5002  26.6897  32.9817  37.3003  37.4489  37.8781  38.6724
    39.0143  39.2302

          k = 0.0000 0.0000 0.0000 (   949 PWs)   bands (ev):

   -24.4258  -6.3981  -6.3981  -6.3981   7.4160   9.4697   9.4697  16.6917
    16.6917  16.6917  20.8193  20.8193  20.8193  25.0607  25.0607  25.0607
    25.2543  26.3253  26.3253  33.0924  37.8554  37.8554  37.8555  38.6886
    38.6886  38.6886

          k = 0.0250 0.0250 0.0250 (   937 PWs)   bands (ev):

   -24.4226  -6.4091  -6.4069  -6.4069   7.4613   9.5042   9.5042  16.5843
    16.6243  16.6243  20.8277  20.8441  20.8441  24.8036  24.8036  25.0843
    25.4329  26.7177  26.7177  32.9237  37.0863  37.5747  37.5747  38.9695
    38.9695  39.3066

          k = 0.0500 0.0500 0.0500 (   946 PWs)   bands (ev):

   -24.4128  -6.4416  -6.4330  -6.4330   7.5954   9.6067   9.6067  16.2878
    16.4268  16.4268  20.8574  20.9174  20.9174  24.4083  24.4083  25.1551
    25.9376  27.5138  27.5138  32.3980  36.1341  37.1196  37.1196  38.9583
    38.9583  39.8969

          k = 0.0750 0.0750 0.0750 (   955 PWs)   bands (ev):

   -24.3969  -6.4934  -6.4753  -6.4753   7.8125   9.7755   9.7755  15.8634
    16.1126  16.1126  20.9152  21.0356  21.0356  24.1093  24.1093  25.2728
    26.6980  28.4635  28.4635  31.5213  35.4208  36.6805  36.6805  38.0168
    38.0168  40.1457

          k = 0.1000 0.1000 0.1000 (   964 PWs)   bands (ev):

   -24.3751  -6.5613  -6.5319  -6.5319   8.1028  10.0073  10.0073  15.3779
    15.7032  15.7032  21.0014  21.1941  21.1941  23.9485  23.9486  25.4375
    27.6380  29.4943  29.4943  30.4048  34.9445  36.2773  36.2773  36.9876
    36.9876  39.8932

          k = 0.1250 0.1250 0.1250 (   952 PWs)   bands (ev):

   -24.3481  -6.6416  -6.6005  -6.6005   8.4509  10.2974  10.2974  14.8905
    15.2258  15.2258  21.1094  21.3883  21.3883  23.9274  23.9274  25.6488
    28.6250  29.2590  30.5489  30.5489  34.6331  35.7924  35.7924  36.1594
    36.1594  39.3437

          k = 0.1500 0.1500 0.1500 (   952 PWs)   bands (ev):

   -24.3164  -6.7304  -6.6786  -6.6786   8.8332  10.6389  10.6389  14.4527
    14.7096  14.7096  21.2238  21.6141  21.6141  24.0349  24.0349  25.9065
    27.8909  29.8941  31.5095  31.5095  34.4484  35.0574  35.0574  35.8225
    35.8225  38.6998

          k = 0.1750 0.1750 0.1750 (   943 PWs)   bands (ev):

   -24.2808  -6.8236  -6.7632  -6.7632   9.2151  11.0203  11.0203  14.1158
    14.1855  14.1855  21.3162  21.8683  21.8683  24.2559  24.2559  26.2101
    26.7414  30.9978  32.0303  32.0303  34.4018  34.6865  34.6865  35.7029
    35.7029  38.0488

          k = 0.2000 0.2000 0.2000 (   946 PWs)   bands (ev):

   -24.2423  -6.9177  -6.8518  -6.8518   9.5477  11.4173  11.4173  13.6931
    13.6931  13.9374  21.3314  22.1482  22.1482  24.5735  24.5735  25.7301
    26.5589  31.7403  31.7403  31.9535  34.5437  34.8857  34.8857  35.9543
    35.9543  37.4831

          k = 0.2250 0.2250 0.2250 (   958 PWs)   bands (ev):

   -24.2018  -7.0099  -6.9418  -6.9418   9.7780  11.7583  11.7583  13.3147
    13.3147  13.9737  21.1756  22.4508  22.4508  24.9695  24.9695  24.9724
    26.9521  31.0204  31.0204  32.5815  34.8044  35.0100  35.0100  36.8189
    36.8189  37.2414

          k = 0.2500 0.2500 0.2500 (   958 PWs)   bands (ev):

   -24.1602  -7.0975  -7.0306  -7.0306   9.8789  11.8499  11.8499  13.2514
    13.2514  14.2515  20.7578  22.7707  22.7707  24.5692  25.4206  25.4206
    27.3887  30.2120  30.2120  32.9025  34.7335  35.0401  35.0401  37.7385
    37.9067  37.9067

          k = 0.2750 0.2750 0.2750 (   955 PWs)   bands (ev):

   -24.1187  -7.1788  -7.1161  -7.1161   9.8705  11.6131  11.6131  13.5868
    13.5868  14.7471  20.0997  23.0974  23.0974  24.5044  25.8885  25.8885
    27.8670  29.4465  29.4465  33.0843  34.2653  35.0691  35.0691  38.7115
    38.7115  38.7902

          k = 0.3000 0.3000 0.3000 (   958 PWs)   bands (ev):

   -24.0781  -7.2525  -7.1966  -7.1966   9.8000  11.2537  11.2537  14.1180
    14.1180  15.4061  19.3168  23.4093  23.4093  24.6672  26.2884  26.2884
    28.3849  28.8467  28.8467  33.2300  33.6514  35.0938  35.0938  38.6484
    38.6484  39.1410

          k = 0.3250 0.3250 0.3250 (   955 PWs)   bands (ev):

   -24.0396  -7.3179  -7.2706  -7.2706   9.7103  10.8857  10.8857  14.7323
    14.7323  16.1747  18.5077  23.6598  23.6598  24.9622  26.4518  26.4518
    28.6244  28.6244  28.9391  32.9879  33.3884  35.0559  35.0559  38.0629
    38.1600  38.1600

          k = 0.3500 0.3500 0.3500 (   955 PWs)   bands (ev):

   -24.0041  -7.3745  -7.3367  -7.3367   9.6287  10.5452  10.5452  15.3937
    15.3937  17.0070  17.7325  23.7536  23.7536  25.3338  26.3559  26.3559
    28.8847  28.8847  29.5246  32.3263  33.5474  34.8516  34.8516  36.8478
    37.8138  37.8138

          k = 0.3750 0.3750 0.3750 (   958 PWs)   bands (ev):

   -23.9725  -7.4221  -7.3941  -7.3941   9.5690  10.2462  10.2462  16.0869
    16.0869  17.0128  17.8778  23.5697  23.5697  25.7495  26.3071  26.3071
    29.4208  29.4208  30.1334  31.6733  33.6759  34.4248  34.4248  35.7368
    37.7945  37.7945

          k = 0.4000 0.4000 0.4000 (   952 PWs)   bands (ev):

   -23.9454  -7.4608  -7.4418  -7.4418   9.5351   9.9957   9.9957  16.3928
    16.8018  16.8018  18.7279  23.1023  23.1023  26.1843  26.4602  26.4602
    30.0505  30.0505  30.7518  31.0452  33.5795  33.8582  33.8582  34.9699
    38.0549  38.0549

          k = 0.4250 0.4250 0.4250 (   952 PWs)   bands (ev):

   -23.9236  -7.4906  -7.4796  -7.4796   9.5240   9.7976   9.7976  15.8812
    17.5274  17.5274  19.5197  22.4694  22.4694  26.6114  26.7415  26.7415
    30.4653  30.6769  30.6769  31.3554  33.0095  33.2788  33.2788  34.8230
    38.3308  38.3309

          k = 0.4500 0.4500 0.4500 (   955 PWs)   bands (ev):

   -23.9077  -7.5118  -7.5068  -7.5068   9.5275   9.6545   9.6545  15.4979
    18.2436  18.2436  20.1861  21.7801  21.7801  26.9920  27.0447  27.0447
    29.9766  31.2129  31.2129  31.8991  32.3225  32.7966  32.7966  34.9624
    37.9388  37.9388

          k = 0.4750 0.4750 0.4750 (   967 PWs)   bands (ev):

   -23.8980  -7.5245  -7.5232  -7.5232   9.5354   9.5681   9.5681  15.2598
    18.8904  18.8904  20.6432  21.1377  21.1377  27.2667  27.2792  27.2792
    29.6434  31.5443  31.5443  31.8170  32.3029  32.5188  32.5188  35.1143
    37.4916  37.4916

          k = 0.5000 0.5000 0.5000 (   968 PWs)   bands (ev):

   -23.8948  -7.5287  -7.5287  -7.5287   9.5392   9.5392   9.5392  15.1789
    19.2201  19.2201  20.8078  20.8078  20.8078  27.3686  27.3686  27.3686
    29.5253  31.6301  31.6301  31.6301  32.4575  32.4575  32.4575  35.1761
    37.3201  37.3201

     Writing all to output data dir ./work/POSCAR.save/

     init_run     :      0.17s CPU      0.19s WALL (       1 calls)
     electrons    :      2.74s CPU      3.05s WALL (       1 calls)

     Called by init_run:
     wfcinit      :      0.00s CPU      0.01s WALL (       1 calls)
     potinit      :      0.08s CPU      0.08s WALL (       1 calls)
     hinit0       :      0.08s CPU      0.08s WALL (       1 calls)

     Called by electrons:
     c_bands      :      2.74s CPU      3.05s WALL (       1 calls)
     v_of_rho     :      0.00s CPU      0.00s WALL (       1 calls)
     newd         :      0.00s CPU      0.00s WALL (       1 calls)
     PAW_pot      :      0.04s CPU      0.04s WALL (       1 calls)

     Called by c_bands:
     init_us_2    :      0.00s CPU      0.00s WALL (      91 calls)
     init_us_2:cp :      0.00s CPU      0.00s WALL (      91 calls)
     cegterg      :      2.54s CPU      2.65s WALL (     115 calls)

     Called by *egterg:
     cdiaghg      :      0.95s CPU      0.99s WALL (    1741 calls)
     h_psi        :      1.30s CPU      1.36s WALL (    1856 calls)
     s_psi        :      0.02s CPU      0.02s WALL (    1856 calls)
     g_psi        :      0.02s CPU      0.02s WALL (    1650 calls)

     Called by h_psi:
     h_psi:calbec :      0.06s CPU      0.07s WALL (    1856 calls)
     vloc_psi     :      1.21s CPU      1.26s WALL (    1856 calls)
     add_vuspsi   :      0.02s CPU      0.02s WALL (    1856 calls)

     General routines
     calbec       :      0.06s CPU      0.06s WALL (    1856 calls)
     fft          :      0.06s CPU      0.06s WALL (      13 calls)
     ffts         :      0.03s CPU      0.03s WALL (       1 calls)
     fftw         :      1.10s CPU      1.14s WALL (   51366 calls)
     interpolate  :      0.03s CPU      0.03s WALL (       1 calls)
     davcio       :      0.00s CPU      0.13s WALL (     182 calls)

     Parallel routines

     PWSCF        :      3.26s CPU      4.30s WALL


   This run was terminated on:  22:40:33  15May2024            

=------------------------------------------------------------------------------=
   JOB DONE.
=------------------------------------------------------------------------------=
