
     Program PWSCF v.7.1 starts on 15May2024 at 22:39: 3 

     This program is part of the open-source Quantum ESPRESSO suite
     for quantum simulation of materials; please cite
         "P. Giannozzi et al., J. Phys.:Condens. Matter 21 395502 (2009);
         "P. Giannozzi et al., J. Phys.:Condens. Matter 29 465901 (2017);
         "P. Giannozzi et al., J. Chem. Phys. 152 154105 (2020);
          URL http://www.quantum-espresso.org", 
     in publications or presentations arising from this work. More details at
     http://www.quantum-espresso.org/quote

     Parallel version (MPI & OpenMP), running on      10 processor cores
     Number of MPI processes:                10
     Threads/MPI process:                     1

     MPI processes distributed on     1 nodes
     14554 MiB available memory on the printing compute node when the environment starts

     Waiting for input...
     Reading input from standard input

     Current dimensions of program PWSCF are:
     Max number of different atomic species (ntypx) = 10
     Max number of k-points (npk) =  40000
     Max angular momentum in pseudopotentials (lmaxx) =  4

     Atomic positions and unit cell read from directory:
     ./work/POSCAR.save/

     file Ce.pbe-spdn-kjpaw_psl.1.0.0.UPF: wavefunction(s)  5D renormalized
     Message from routine setup:
     using ibrav=0 with symmetry is DISCOURAGED, use correct ibrav instead

     R & G space division:  proc/nbgrp/npool/nimage =      10
     Subspace diagonalization in iterative solution of the eigenvalue problem:
     a serial algorithm will be used


     Parallelization info
     --------------------
     sticks:   dense  smooth     PW     G-vecs:    dense   smooth      PW
     Min          50      42     13                  870      660     123
     Max          51      43     14                  871      665     124
     Sum         509     421    137                 8709     6619    1237

     Using Slab Decomposition



     bravais-lattice index     =            0
     lattice parameter (alat)  =       5.9939  a.u.
     unit-cell volume          =     215.3388 (a.u.)^3
     number of atoms/cell      =            1
     number of atomic types    =            1
     number of electrons       =        11.00
     number of Kohn-Sham states=           26
     kinetic-energy cutoff     =      37.0000  Ry
     charge density cutoff     =     179.0000  Ry
     Exchange-correlation= SLA  PW   PBX  PBC
                           (   1   4   3   4   0   0   0)

     celldm(1)=   5.993871  celldm(2)=   0.000000  celldm(3)=   0.000000
     celldm(4)=   0.000000  celldm(5)=   0.000000  celldm(6)=   0.000000

     crystal axes: (cart. coord. in units of alat)
               a(1) = (   1.000000   0.000000   0.000000 )  
               a(2) = (   0.000000   1.000000   0.000000 )  
               a(3) = (   0.000000   0.000000   1.000000 )  

     reciprocal axes: (cart. coord. in units 2 pi/alat)
               b(1) = (  1.000000  0.000000  0.000000 )  
               b(2) = (  0.000000  1.000000  0.000000 )  
               b(3) = (  0.000000  0.000000  1.000000 )  


     PseudoPot. # 1 for Ce read from file:
     ./../../../../pseudo/psl100_PBE/Ce.pbe-spdn-kjpaw_psl.1.0.0.UPF
     MD5 check sum: 1a25380276e46fcecd5a173acdad072c
     Pseudo is Projector augmented-wave + core cor, Zval = 11.0
     Generated using 'atomic' code by A. Dal Corso  v.7.2
     Shape of augmentation charge: PSQ
     Using radial grid of 1255 points,  6 beta functions with: 
                l(1) =   0
                l(2) =   0
                l(3) =   1
                l(4) =   1
                l(5) =   2
                l(6) =   2
     Q(r) pseudized with 0 coefficients 


     atomic species   valence    mass     pseudopotential
        Ce            11.00   140.11600     Ce( 1.00)

     48 Sym. Ops., with inversion, found



   Cartesian axes

     site n.     atom                  positions (alat units)
         1           Ce  tau(   1) = (   0.0000000   0.0000000   0.0000000  )

     number of k points=    91  Methfessel-Paxton smearing, width (Ry)=  0.0200
                       cart. coord. in units 2pi/alat
        k(    1) = (   0.0000000   0.5000000   0.5000000), wk =   0.0219780
        k(    2) = (   0.0500000   0.5000000   0.5000000), wk =   0.0219780
        k(    3) = (   0.1000000   0.5000000   0.5000000), wk =   0.0219780
        k(    4) = (   0.1500000   0.5000000   0.5000000), wk =   0.0219780
        k(    5) = (   0.2000000   0.5000000   0.5000000), wk =   0.0219780
        k(    6) = (   0.2500000   0.5000000   0.5000000), wk =   0.0219780
        k(    7) = (   0.3000000   0.5000000   0.5000000), wk =   0.0219780
        k(    8) = (   0.3500000   0.5000000   0.5000000), wk =   0.0219780
        k(    9) = (   0.4000000   0.5000000   0.5000000), wk =   0.0219780
        k(   10) = (   0.4500000   0.5000000   0.5000000), wk =   0.0219780
        k(   11) = (   0.5000000   0.5000000   0.5000000), wk =   0.0219780
        k(   12) = (   0.4750000   0.4750000   0.4750000), wk =   0.0219780
        k(   13) = (   0.4500000   0.4500000   0.4500000), wk =   0.0219780
        k(   14) = (   0.4250000   0.4250000   0.4250000), wk =   0.0219780
        k(   15) = (   0.4000000   0.4000000   0.4000000), wk =   0.0219780
        k(   16) = (   0.3750000   0.3750000   0.3750000), wk =   0.0219780
        k(   17) = (   0.3500000   0.3500000   0.3500000), wk =   0.0219780
        k(   18) = (   0.3250000   0.3250000   0.3250000), wk =   0.0219780
        k(   19) = (   0.3000000   0.3000000   0.3000000), wk =   0.0219780
        k(   20) = (   0.2750000   0.2750000   0.2750000), wk =   0.0219780
        k(   21) = (   0.2500000   0.2500000   0.2500000), wk =   0.0219780
        k(   22) = (   0.2250000   0.2250000   0.2250000), wk =   0.0219780
        k(   23) = (   0.2000000   0.2000000   0.2000000), wk =   0.0219780
        k(   24) = (   0.1750000   0.1750000   0.1750000), wk =   0.0219780
        k(   25) = (   0.1500000   0.1500000   0.1500000), wk =   0.0219780
        k(   26) = (   0.1250000   0.1250000   0.1250000), wk =   0.0219780
        k(   27) = (   0.1000000   0.1000000   0.1000000), wk =   0.0219780
        k(   28) = (   0.0750000   0.0750000   0.0750000), wk =   0.0219780
        k(   29) = (   0.0500000   0.0500000   0.0500000), wk =   0.0219780
        k(   30) = (   0.0250000   0.0250000   0.0250000), wk =   0.0219780
        k(   31) = (   0.0000000   0.0000000   0.0000000), wk =   0.0219780
        k(   32) = (   0.0500000   0.0000000   0.0000000), wk =   0.0219780
        k(   33) = (   0.1000000   0.0000000   0.0000000), wk =   0.0219780
        k(   34) = (   0.1500000   0.0000000   0.0000000), wk =   0.0219780
        k(   35) = (   0.2000000   0.0000000   0.0000000), wk =   0.0219780
        k(   36) = (   0.2500000   0.0000000   0.0000000), wk =   0.0219780
        k(   37) = (   0.3000000   0.0000000   0.0000000), wk =   0.0219780
        k(   38) = (   0.3500000   0.0000000   0.0000000), wk =   0.0219780
        k(   39) = (   0.4000000   0.0000000   0.0000000), wk =   0.0219780
        k(   40) = (   0.4500000   0.0000000   0.0000000), wk =   0.0219780
        k(   41) = (   0.5000000   0.0000000   0.0000000), wk =   0.0219780
        k(   42) = (   0.5000000   0.0500000   0.0000000), wk =   0.0219780
        k(   43) = (   0.5000000   0.1000000   0.0000000), wk =   0.0219780
        k(   44) = (   0.5000000   0.1500000   0.0000000), wk =   0.0219780
        k(   45) = (   0.5000000   0.2000000   0.0000000), wk =   0.0219780
        k(   46) = (   0.5000000   0.2500000   0.0000000), wk =   0.0219780
        k(   47) = (   0.5000000   0.3000000   0.0000000), wk =   0.0219780
        k(   48) = (   0.5000000   0.3500000   0.0000000), wk =   0.0219780
        k(   49) = (   0.5000000   0.4000000   0.0000000), wk =   0.0219780
        k(   50) = (   0.5000000   0.4500000   0.0000000), wk =   0.0219780
        k(   51) = (   0.5000000   0.5000000   0.0000000), wk =   0.0219780
        k(   52) = (   0.4750000   0.4750000   0.0000000), wk =   0.0219780
        k(   53) = (   0.4500000   0.4500000   0.0000000), wk =   0.0219780
        k(   54) = (   0.4250000   0.4250000   0.0000000), wk =   0.0219780
        k(   55) = (   0.4000000   0.4000000   0.0000000), wk =   0.0219780
        k(   56) = (   0.3750000   0.3750000   0.0000000), wk =   0.0219780
        k(   57) = (   0.3500000   0.3500000   0.0000000), wk =   0.0219780
        k(   58) = (   0.3250000   0.3250000   0.0000000), wk =   0.0219780
        k(   59) = (   0.3000000   0.3000000   0.0000000), wk =   0.0219780
        k(   60) = (   0.2750000   0.2750000   0.0000000), wk =   0.0219780
        k(   61) = (   0.2500000   0.2500000   0.0000000), wk =   0.0219780
        k(   62) = (   0.2250000   0.2250000   0.0000000), wk =   0.0219780
        k(   63) = (   0.2000000   0.2000000   0.0000000), wk =   0.0219780
        k(   64) = (   0.1750000   0.1750000   0.0000000), wk =   0.0219780
        k(   65) = (   0.1500000   0.1500000   0.0000000), wk =   0.0219780
        k(   66) = (   0.1250000   0.1250000   0.0000000), wk =   0.0219780
        k(   67) = (   0.1000000   0.1000000   0.0000000), wk =   0.0219780
        k(   68) = (   0.0750000   0.0750000   0.0000000), wk =   0.0219780
        k(   69) = (   0.0500000   0.0500000   0.0000000), wk =   0.0219780
        k(   70) = (   0.0250000   0.0250000   0.0000000), wk =   0.0219780
        k(   71) = (   0.0000000   0.0000000   0.0000000), wk =   0.0219780
        k(   72) = (   0.0250000   0.0250000   0.0250000), wk =   0.0219780
        k(   73) = (   0.0500000   0.0500000   0.0500000), wk =   0.0219780
        k(   74) = (   0.0750000   0.0750000   0.0750000), wk =   0.0219780
        k(   75) = (   0.1000000   0.1000000   0.1000000), wk =   0.0219780
        k(   76) = (   0.1250000   0.1250000   0.1250000), wk =   0.0219780
        k(   77) = (   0.1500000   0.1500000   0.1500000), wk =   0.0219780
        k(   78) = (   0.1750000   0.1750000   0.1750000), wk =   0.0219780
        k(   79) = (   0.2000000   0.2000000   0.2000000), wk =   0.0219780
        k(   80) = (   0.2250000   0.2250000   0.2250000), wk =   0.0219780
        k(   81) = (   0.2500000   0.2500000   0.2500000), wk =   0.0219780
        k(   82) = (   0.2750000   0.2750000   0.2750000), wk =   0.0219780
        k(   83) = (   0.3000000   0.3000000   0.3000000), wk =   0.0219780
        k(   84) = (   0.3250000   0.3250000   0.3250000), wk =   0.0219780
        k(   85) = (   0.3500000   0.3500000   0.3500000), wk =   0.0219780
        k(   86) = (   0.3750000   0.3750000   0.3750000), wk =   0.0219780
        k(   87) = (   0.4000000   0.4000000   0.4000000), wk =   0.0219780
        k(   88) = (   0.4250000   0.4250000   0.4250000), wk =   0.0219780
        k(   89) = (   0.4500000   0.4500000   0.4500000), wk =   0.0219780
        k(   90) = (   0.4750000   0.4750000   0.4750000), wk =   0.0219780
        k(   91) = (   0.5000000   0.5000000   0.5000000), wk =   0.0219780

     Dense  grid:     8709 G-vectors     FFT dimensions: (  25,  25,  25)

     Smooth grid:     6619 G-vectors     FFT dimensions: (  24,  24,  24)

     Estimated max dynamical RAM per process >       3.86 MB

     Estimated total dynamical RAM >      38.63 MB

     The potential is recalculated from file :
     ./work/POSCAR.save/charge-density

     Starting wfcs are   13 randomized atomic wfcs +   13 random wfcs
     Checking if some PAW data can be deallocated... 

     Band Structure Calculation
     Davidson diagonalization with overlap

     ethr =  6.64E-07,  avg # of iterations = 16.7

     total cpu time spent up to now is        3.2 secs

     End of band structure calculation

          k = 0.0000 0.5000 0.5000 (   840 PWs)   bands (ev):

   -21.8159  -5.9389  -5.9389  -3.5155   9.6786  13.1523  16.5122  16.5122
    18.6377  18.6377  22.5093  24.9298  25.6642  26.0699  26.0699  28.5769
    32.8952  34.8972  34.8972  39.6468  39.6538  39.7815  41.1818  41.1818
    46.0955  46.0955

          k = 0.0500 0.5000 0.5000 (   828 PWs)   bands (ev):

   -21.8092  -5.9311  -5.9311  -3.5757   9.7052  13.3034  16.0645  16.0645
    19.1351  19.1351  22.5180  24.0136  26.1237  26.1237  26.5949  28.5800
    32.9728  34.9162  34.9162  39.5117  39.6450  39.6838  40.8790  40.8790
    45.8585  46.4674

          k = 0.1000 0.5000 0.5000 (   812 PWs)   bands (ev):

   -21.7895  -5.9081  -5.9081  -3.7470   9.7841  13.7466  15.2338  15.2338
    20.1064  20.1064  22.5436  22.8522  26.2912  26.2912  27.7823  28.5851
    33.2216  34.9723  34.9723  39.1492  39.2637  39.7732  40.1633  40.1633
    45.2649  46.0281

          k = 0.1500 0.5000 0.5000 (   820 PWs)   bands (ev):

   -21.7586  -5.8721  -5.8721  -4.0042   9.9125  14.3775  14.3775  14.4561
    21.1674  21.1674  21.7353  22.5838  26.5930  26.5930  28.5775  28.8846
    33.6877  35.0619  35.0619  38.6510  38.7030  39.3017  39.3017  39.9196
    43.8903  44.5406

          k = 0.2000 0.5000 0.5000 (   820 PWs)   bands (ev):

   -21.7193  -5.8262  -5.8262  -4.3135  10.0855  13.5816  13.5816  15.3960
    20.6909  22.1848  22.1848  22.6353  27.0643  27.0643  28.5288  29.8059
    34.4279  35.1798  35.1798  38.0324  38.1037  38.4346  38.4346  40.1188
    41.8457  43.8231

          k = 0.2500 0.5000 0.5000 (   824 PWs)   bands (ev):

   -21.6751  -5.7745  -5.7745  -4.6395  10.2946  12.8769  12.8769  16.5275
    19.7361  22.6935  23.0691  23.0691  27.7427  27.7427  28.3897  30.4997
    35.3174  35.3174  35.4475  37.3065  37.5689  37.6303  37.6303  39.9942
    40.3631  43.1977

          k = 0.3000 0.5000 0.5000 (   824 PWs)   bands (ev):

   -21.6303  -5.7219  -5.7219  -4.9505  10.5268  12.2806  12.2806  17.8108
    18.8893  22.7531  23.7648  23.7648  28.0852  28.6300  28.6300  30.9921
    35.4617  35.4617  36.5747  36.6500  36.9325  36.9325  37.0887  38.4341
    40.6401  42.7524

          k = 0.3500 0.5000 0.5000 (   824 PWs)   bands (ev):

   -21.5893  -5.6737  -5.6737  -5.2198  10.7622  11.8044  11.8044  18.1733
    19.2044  22.8081  24.2676  24.2676  27.5263  29.6548  29.6548  31.3368
    35.5845  35.5845  35.9136  36.3896  36.3896  36.6905  37.2323  37.8370
    40.9289  42.6346

          k = 0.4000 0.5000 0.5000 (   836 PWs)   bands (ev):

   -21.5564  -5.6349  -5.6349  -5.4267  10.9723  11.4574  11.4574  17.6187
    20.6559  22.8526  24.6035  24.6035  26.6662  30.6689  30.6689  31.5708
    35.4506  35.5974  35.5974  36.1053  36.1053  36.3670  36.3928  38.7200
    41.1959  43.0588

          k = 0.4500 0.5000 0.5000 (   840 PWs)   bands (ev):

   -21.5351  -5.6098  -5.6098  -5.5567  11.1213  11.2465  11.2465  17.2625
    22.0592  22.8816  24.7972  24.7972  25.5912  31.4528  31.4528  31.7093
    35.2789  35.4725  35.4725  35.7673  36.1084  36.1084  36.2095  39.1382
    41.3925  41.9089

          k = 0.5000 0.5000 0.5000 (   840 PWs)   bands (ev):

   -21.5277  -5.6010  -5.6010  -5.6010  11.1757  11.1757  11.1757  17.1390
    22.8916  22.8916  24.8607  24.8607  24.8607  31.7555  31.7555  31.7555
    35.3865  35.4102  35.4102  35.4102  36.1475  36.1475  36.1475  39.2406
    41.4663  41.4663

          k = 0.4750 0.4750 0.4750 (   840 PWs)   bands (ev):

   -21.5332  -5.5954  -5.5938  -5.5938  11.1732  11.2094  11.2094  17.2322
    22.5216  22.5216  24.6867  25.2301  25.2301  31.5680  31.6110  31.6110
    35.3146  35.3146  35.3514  35.8381  35.9737  36.2545  36.2545  39.1755
    41.6638  41.6638

          k = 0.4500 0.4500 0.4500 (   837 PWs)   bands (ev):

   -21.5498  -5.5785  -5.5720  -5.5720  11.1699  11.3102  11.3102  17.5064
    21.7773  21.7773  24.1961  25.9668  25.9668  31.1289  31.2499  31.2499
    34.9153  34.9153  35.5209  35.5496  36.6473  36.6798  36.6798  39.0257
    42.1797  42.1797

          k = 0.4250 0.4250 0.4250 (   822 PWs)   bands (ev):

   -21.5770  -5.5500  -5.5357  -5.5357  11.1768  11.4772  11.4772  17.9474
    20.9415  20.9415  23.4646  26.7650  26.7650  30.6033  30.8080  30.8080
    34.2901  34.2901  34.9133  35.8929  37.3374  37.3374  37.5648  38.9732
    42.6775  42.6775

          k = 0.4000 0.4000 0.4000 (   816 PWs)   bands (ev):

   -21.6141  -5.5098  -5.4853  -5.4853  11.2068  11.7088  11.7088  18.5361
    20.0876  20.0876  22.5766  27.4840  27.4840  30.0667  30.4232  30.4232
    33.5734  33.5734  34.2406  36.3248  37.9771  38.0815  38.0815  39.5863
    42.4076  42.4076

          k = 0.3750 0.3750 0.3750 (   816 PWs)   bands (ev):

   -21.6601  -5.4576  -5.4210  -5.4210  11.2704  12.0025  12.0025  19.2398
    19.2398  19.2518  21.6043  27.9312  27.9312  29.5464  30.2774  30.2774
    32.8648  32.8648  33.5526  36.7839  37.9336  38.7805  38.7805  40.8165
    42.1322  42.1322

          k = 0.3500 0.3500 0.3500 (   817 PWs)   bands (ev):

   -21.7139  -5.3930  -5.3433  -5.3433  11.3733  12.3546  12.3546  18.4108
    18.4108  20.0695  20.6075  27.9316  27.9316  29.0569  30.4379  30.4379
    32.3238  32.3238  32.8761  37.1240  37.9843  39.2672  39.2672  42.2051
    42.2051  42.2067

          k = 0.3250 0.3250 0.3250 (   814 PWs)   bands (ev):

   -21.7741  -5.3159  -5.2532  -5.2532  11.5139  12.7588  12.7588  17.6112
    17.6112  19.6102  20.9865  27.6263  27.6263  28.6129  30.4013  30.4013
    32.2261  32.3443  32.3443  37.1788  38.3684  39.4494  39.4494  42.6805
    42.6805  43.5979

          k = 0.3000 0.3000 0.3000 (   820 PWs)   bands (ev):

   -21.8391  -5.2261  -5.1515  -5.1515  11.6812  13.2035  13.2035  16.8551
    16.8551  18.6786  21.9460  27.2133  27.2133  28.2372  29.9271  29.9271
    31.6111  32.9887  32.9887  37.1067  38.9177  39.4412  39.4412  43.2922
    43.2922  44.6060

          k = 0.2750 0.2750 0.2750 (   823 PWs)   bands (ev):

   -21.9075  -5.1242  -5.0397  -5.0397  11.8507  13.6596  13.6596  16.1723
    16.1723  17.8442  22.9114  26.7776  26.7776  27.9736  29.3263  29.3263
    31.0367  33.8719  33.8719  37.0192  39.3799  39.3799  39.4573  43.3849
    43.3849  43.9851

          k = 0.2500 0.2500 0.2500 (   811 PWs)   bands (ev):

   -21.9773  -5.0107  -4.9197  -4.9197  11.9787  14.0294  14.0294  15.6605
    15.6605  17.1649  23.7881  26.3509  26.3509  27.9096  28.7343  28.7343
    30.5065  34.8261  34.8261  36.9188  39.3236  39.3236  39.7785  42.5175
    42.5175  42.8805

          k = 0.2250 0.2250 0.2250 (   826 PWs)   bands (ev):

   -22.0469  -4.8874  -4.7938  -4.7938  12.0023  14.0340  14.0340  15.5968
    15.5968  16.7119  24.4239  25.9460  25.9460  28.1908  28.1946  28.1946
    30.0224  35.7636  35.7636  36.7366  39.2636  39.2636  39.4969  41.3492
    41.3492  42.4766

          k = 0.2000 0.2000 0.2000 (   820 PWs)   bands (ev):

   -22.1147  -4.7564  -4.6649  -4.6649  11.8661  13.6433  13.6433  16.0080
    16.0080  16.5456  24.7158  25.5688  25.5688  27.7290  27.7290  28.9126
    29.5866  36.2846  36.5077  36.5077  38.8487  39.1171  39.1171  40.4749
    40.4749  42.8177

          k = 0.1750 0.1750 0.1750 (   820 PWs)   bands (ev):

   -22.1788  -4.6211  -4.5364  -4.5364  11.5702  13.1499  13.1499  16.5950
    16.5950  16.6676  24.7438  25.2220  25.2220  27.3539  27.3539  29.2001
    29.9823  35.3854  36.5114  36.5114  38.4979  39.1417  39.1417  40.2722
    40.2722  43.4322

          k = 0.1500 0.1500 0.1500 (   820 PWs)   bands (ev):

   -22.2379  -4.4856  -4.4121  -4.4121  11.1732  12.6694  12.6694  17.0171
    17.2323  17.2323  24.6430  24.9075  24.9075  27.0841  27.0841  28.8638
    31.2421  34.2046  35.6148  35.6148  38.4940  39.6901  39.6901  40.5781
    40.5781  44.1067

          k = 0.1250 0.1250 0.1250 (   820 PWs)   bands (ev):

   -22.2905  -4.3552  -4.2962  -4.2962  10.7460  12.2365  12.2365  17.5162
    17.8694  17.8694  24.4943  24.6276  24.6276  26.9349  26.9349  28.5783
    32.4832  33.0666  34.4231  34.4231  38.6970  40.2139  40.2139  41.3479
    41.3479  44.7296

          k = 0.1000 0.1000 0.1000 (   820 PWs)   bands (ev):

   -22.3353  -4.2358  -4.1933  -4.1933  10.3425  11.8667  11.8667  18.0951
    18.4688  18.4688  24.3351  24.3858  24.3858  26.9217  26.9217  28.3442
    31.7194  33.1989  33.1989  33.9842  39.0633  40.6497  40.6497  42.3786
    42.3786  45.1326

          k = 0.0750 0.0750 0.0750 (   805 PWs)   bands (ev):

   -22.3712  -4.1338  -4.1075  -4.1075   9.9989  11.5700  11.5700  18.6887
    18.9922  18.9922  24.1828  24.1871  24.1871  27.0565  27.0565  28.1618
    30.6827  32.0301  32.0301  35.1836  39.6280  41.1050  41.1050  43.4128
    43.4128  45.0801

          k = 0.0500 0.0500 0.0500 (   805 PWs)   bands (ev):

   -22.3976  -4.0555  -4.0430  -4.0430   9.7386  11.3530  11.3530  19.2234
    19.4011  19.4011  24.0379  24.0379  24.0490  27.3367  27.3367  28.0313
    29.8472  30.9745  30.9745  36.1147  40.4615  41.6032  41.6032  43.9298
    43.9298  44.6519

          k = 0.0250 0.0250 0.0250 (   808 PWs)   bands (ev):

   -22.4136  -4.0062  -4.0028  -4.0028   9.5767  11.2208  11.2208  19.6085
    19.6617  19.6617  23.9447  23.9447  23.9506  27.7064  27.7064  27.9530
    29.2979  30.1249  30.1249  36.6697  41.5539  42.1264  42.1264  43.5657
    43.5657  43.9590

          k = 0.0000 0.0000 0.0000 (   799 PWs)   bands (ev):

   -22.4190  -3.9892  -3.9892  -3.9892   9.5218  11.1764  11.1764  19.7513
    19.7513  19.7513  23.9129  23.9129  23.9129  27.9268  27.9268  27.9268
    29.1051  29.7423  29.7423  36.8483  42.4730  42.4730  42.4730  43.2116
    43.2116  43.2116

          k = 0.0500 0.0000 0.0000 (   807 PWs)   bands (ev):

   -22.4119  -4.0590  -3.9834  -3.9834   9.5929  11.1953  11.2769  19.5408
    19.5408  19.7626  23.6364  24.1151  24.1151  27.2664  28.0473  28.0473
    29.3064  29.9293  30.4852  36.6263  41.5262  41.5262  42.7218  42.7823
    44.1718  44.1718

          k = 0.1000 0.0000 0.0000 (   807 PWs)   bands (ev):

   -22.3910  -4.2561  -3.9666  -3.9666   9.7817  11.2511  11.5859  19.0256
    19.0256  19.7958  22.9780  24.5904  24.5904  26.1961  28.4222  28.4222
    29.5280  30.7004  31.8034  36.0751  40.3483  40.3483  41.6117  43.5476
    43.5964  45.3306

          k = 0.1500 0.0000 0.0000 (   815 PWs)   bands (ev):

   -22.3583  -4.5493  -3.9402  -3.9402  10.0373  11.3407  12.1055  18.3878
    18.3878  19.8484  22.1990  25.1281  25.1281  25.1396  29.0711  29.0711
    29.6728  31.8849  33.2749  35.3832  39.2421  39.2421  40.0835  41.7976
    44.7281  46.2076

          k = 0.2000 0.0000 0.0000 (   808 PWs)   bands (ev):

   -22.3165  -4.8980  -3.9066  -3.9066  10.3238  11.4585  12.7931  17.7401
    17.7401  19.9164  21.4716  24.1622  25.6148  25.6148  29.8048  29.9768
    29.9768  33.2219  34.6725  34.8370  38.1937  38.2483  38.2483  40.5526
    46.0572  46.6856

          k = 0.2500 0.0000 0.0000 (   812 PWs)   bands (ev):

   -22.2696  -5.2619  -3.8690  -3.8690  10.6299  11.5962  13.5460  17.1404
    17.1404  19.9938  20.9292  23.2880  26.0293  26.0293  29.8891  31.0614
    31.0614  34.0077  34.4964  36.2820  36.4691  37.4146  37.4146  39.7280
    46.8927  46.8927

          k = 0.3000 0.0000 0.0000 (   812 PWs)   bands (ev):

   -22.2219  -5.6059  -3.8309  -3.8309  10.9515  11.7426  14.2071  16.6208
    16.6208  20.0737  20.7226  22.5346  26.3840  26.3840  29.7899  32.1823
    32.1823  33.4257  34.3681  35.6454  36.8385  36.8385  38.1574  39.5093
    46.8743  46.8743

          k = 0.3500 0.0000 0.0000 (   820 PWs)   bands (ev):

   -22.1782  -5.9016  -3.7962  -3.7962  11.2769  11.8833  14.6133  16.2005
    16.2005  20.1480  21.0028  21.9196  26.6857  26.6857  29.2101  32.9501
    33.0803  33.0803  33.2709  35.7957  36.7426  36.7426  39.8862  40.2604
    46.2754  46.2754

          k = 0.4000 0.0000 0.0000 (   816 PWs)   bands (ev):

   -22.1431  -6.1276  -3.7685  -3.7685  11.5789  12.0016  14.7266  15.8922
    15.8922  20.2087  21.4614  21.7986  26.9259  26.9259  27.9983  32.5983
    32.8663  33.4738  33.4738  35.4883  37.3706  37.3706  41.6321  41.7373
    44.8025  44.8025

          k = 0.4500 0.0000 0.0000 (   812 PWs)   bands (ev):

   -22.1203  -6.2692  -3.7505  -3.7505  11.8069  12.0812  14.6791  15.7041
    15.7041  20.2484  21.1775  22.9462  26.5102  27.0846  27.0846  32.3821
    32.8645  33.5093  33.5093  35.1291  38.4623  38.4623  43.2219  43.2219
    43.3531  43.5309

          k = 0.5000 0.0000 0.0000 (   820 PWs)   bands (ev):

   -22.1125  -6.3174  -3.7443  -3.7443  11.8947  12.1093  14.6388  15.6408
    15.6408  20.2622  21.0812  23.8173  25.5164  27.1406  27.1406  32.3091
    32.9116  33.4881  33.4881  34.9730  39.1509  39.1509  42.3865  42.3865
    44.8419  45.1201

          k = 0.5000 0.0500 0.0000 (   820 PWs)   bands (ev):

   -22.1055  -6.3086  -3.8087  -3.7389  11.9680  12.2074  14.2148  15.6588
    15.9778  20.0983  21.2662  23.7743  25.5388  26.9664  27.3993  31.5882
    32.7576  33.2290  34.2547  35.7641  38.9793  39.1632  41.9201  42.4341
    44.4127  44.9782

          k = 0.5000 0.1000 0.0000 (   828 PWs)   bands (ev):

   -22.0854  -6.2832  -3.9914  -3.7231  12.0758  12.6006  13.4795  15.7115
    16.4731  19.6720  21.7939  23.6301  25.6051  26.5715  28.1097  30.5433
    31.6653  34.0672  35.4310  37.0055  38.5313  39.1991  41.0871  42.5804
    42.7292  45.0791

          k = 0.5000 0.1500 0.0000 (   820 PWs)   bands (ev):

   -22.0536  -6.2431  -4.2644  -3.6984  12.1927  12.7115  13.2787  15.7960
    16.9051  19.1109  22.5849  23.3533  25.7106  26.1779  29.1456  29.5330
    30.6434  35.2253  36.6389  37.9413  38.0373  39.2562  40.5370  40.7078
    42.8365  45.1807

          k = 0.5000 0.2000 0.0000 (   818 PWs)   bands (ev):

   -22.0132  -6.1918  -4.5913  -3.6669  11.9794  12.3362  14.1709  15.9068
    17.2758  18.5168  22.9440  23.5170  25.8401  25.9166  28.6009  29.8004
    30.4056  36.4499  37.3972  37.7994  38.0982  38.6353  39.3297  41.0750
    43.2200  45.2750

          k = 0.5000 0.2500 0.0000 (   814 PWs)   bands (ev):

   -21.9677  -6.1340  -4.9344  -3.6318  11.3178  12.5034  15.2114  16.0359
    17.6086  17.9531  22.4713  24.4292  25.7994  25.9402  27.7672  29.2942
    31.8268  36.1599  36.6817  37.4872  38.4093  38.8439  39.4134  42.3970
    43.7465  45.2407

          k = 0.5000 0.3000 0.0000 (   814 PWs)   bands (ev):

   -21.9216  -6.0750  -5.2604  -3.5962  10.7493  12.6834  16.1726  16.3165
    17.4576  17.9157  22.0479  25.1455  25.7829  25.8830  27.0485  29.3772
    33.3712  34.2333  36.0354  36.7962  39.4996  39.7107  39.9752  43.8433
    44.3997  44.5803

          k = 0.5000 0.3500 0.0000 (   816 PWs)   bands (ev):

   -21.8794  -6.0208  -5.5417  -3.5638  10.2904  12.8597  16.3034  17.0536
    17.3567  18.1936  21.8088  25.5897  25.6278  25.8251  26.4622  30.1163
    32.2822  35.0124  35.5564  36.1661  39.5799  40.3693  41.6793  43.0651
    45.0561  45.0893

          k = 0.5000 0.4000 0.0000 (   816 PWs)   bands (ev):

   -21.8455  -5.9771  -5.7575  -3.5379   9.9536  13.0113  16.4130  16.7557
    18.1383  18.4247  21.8967  25.2775  25.8750  25.9021  26.0258  30.5218
    31.2257  35.1970  35.6230  36.7260  39.6455  40.8249  41.4354  43.4252
    44.2060  45.6606

          k = 0.5000 0.4500 0.0000 (   820 PWs)   bands (ev):

   -21.8235  -5.9487  -5.8928  -3.5212   9.7479  13.1152  16.4863  16.5735
    18.5348  18.5816  22.2738  25.0231  25.7558  26.0031  26.0223  29.1499
    32.3376  34.9734  35.1571  38.4626  39.6897  40.1599  41.0930  42.4578
    45.0974  45.9991

          k = 0.5000 0.5000 0.0000 (   840 PWs)   bands (ev):

   -21.8159  -5.9389  -5.9389  -3.5155   9.6786  13.1523  16.5122  16.5122
    18.6377  18.6377  22.5093  24.9298  25.6642  26.0699  26.0699  28.5769
    32.8952  34.8972  34.8972  39.6468  39.6538  39.7815  41.1818  41.1818
    46.0955  46.1000

          k = 0.4750 0.4750 0.0000 (   822 PWs)   bands (ev):

   -21.8197  -5.9305  -5.9290  -3.5183   9.7133  13.1335  16.5164  16.5256
    18.5976  18.6017  22.3816  24.9753  25.7102  25.8282  26.2679  28.8581
    32.6189  34.6909  35.2675  39.2461  39.2693  39.9090  41.5627  41.6688
    45.6873  45.8495

          k = 0.4500 0.4500 0.0000 (   822 PWs)   bands (ev):

   -21.8311  -5.9055  -5.8997  -3.5270   9.8164  13.0779  16.5297  16.5659
    18.4778  18.4860  22.0834  25.0403  25.3741  25.8468  26.7834  29.4908
    32.0979  34.1733  36.0778  38.3114  38.5547  40.5707  42.2855  42.4346
    44.8808  45.2132

          k = 0.4250 0.4250 0.0000 (   828 PWs)   bands (ev):

   -21.8498  -5.8639  -5.8511  -3.5413   9.9856  12.9882  16.5537  16.6327
    18.2717  18.2790  21.7609  24.6193  25.4268  26.0713  27.4867  30.2046
    31.6401  33.5097  37.0721  37.3065  37.7700  41.4620  43.0696  43.0762
    43.9825  44.3577

          k = 0.4000 0.4000 0.0000 (   822 PWs)   bands (ev):

   -21.8752  -5.8057  -5.7841  -3.5606  10.2166  12.8690  16.5912  16.7258
    17.9428  18.0025  21.5117  24.0793  25.6886  26.3791  28.2894  30.6148
    31.6299  32.8089  36.2879  36.9701  38.1721  42.3453  43.1906  43.3932
    43.3995  43.8652

          k = 0.3750 0.3750 0.0000 (   822 PWs)   bands (ev):

   -21.9067  -5.7311  -5.6994  -3.5848  10.5017  12.7270  16.6455  16.8443
    17.5031  17.6516  21.3745  23.6187  25.9610  26.7636  29.1276  30.5086
    32.1416  32.2951  35.2755  36.1706  39.3408  41.9187  42.4120  43.3699
    43.7610  44.6020

          k = 0.3500 0.3500 0.0000 (   824 PWs)   bands (ev):

   -21.9435  -5.6405  -5.5984  -3.6131  10.8275  12.5727  16.7198  16.9776
    16.9876  17.2365  21.3464  23.2689  26.1777  27.2157  29.8835  30.4241
    31.6270  33.1249  34.2828  35.3781  40.4837  40.9934  41.5126  43.1346
    44.8190  45.2035

          k = 0.3250 0.3250 0.0000 (   824 PWs)   bands (ev):

   -21.9845  -5.5345  -5.4826  -3.6448  11.1660  12.4258  16.3986  16.7797
    16.8174  17.1544  21.4078  23.0367  26.2879  27.7214  30.1265  30.5353
    31.6915  33.3247  33.9579  34.5971  40.0557  40.3305  41.9814  42.8106
    45.0969  45.5326

          k = 0.3000 0.3000 0.0000 (   822 PWs)   bands (ev):

   -22.0288  -5.4143  -5.3539  -3.6792  11.4484  12.3371  15.7944  16.3191
    16.9411  17.3434  21.5381  22.9153  26.2794  28.2542  29.7615  30.8644
    32.4188  32.4269  33.8311  34.7223  39.1481  39.5237  42.4602  43.0366
    44.1285  45.5052

          k = 0.2750 0.2750 0.0000 (   818 PWs)   bands (ev):

   -22.0751  -5.2812  -5.2145  -3.7153  11.5451  12.3988  15.1862  15.9145
    17.0929  17.5526  21.7215  22.8902  26.1832  28.7454  29.2736  31.3716
    31.6563  33.0837  33.2920  35.2990  38.3132  38.9044  42.1142  42.4309
    44.7625  45.2246

          k = 0.2500 0.2500 0.0000 (   822 PWs)   bands (ev):

   -22.1224  -5.1375  -5.0672  -3.7524  11.4474  12.5494  14.5895  15.6563
    17.2742  17.7796  21.9454  22.9436  26.0460  28.8013  28.9909  31.2144
    31.9852  32.3590  34.0787  35.4945  37.6524  38.6757  41.2182  41.7888
    44.8389  45.6090

          k = 0.2250 0.2250 0.0000 (   820 PWs)   bands (ev):

   -22.1695  -4.9856  -4.9150  -3.7895  11.2649  12.5926  14.0161  15.6475
    17.4856  18.0213  22.1996  23.0560  25.9097  28.3769  28.7163  31.3725
    31.6615  32.5883  34.4906  35.3184  37.4291  38.6450  40.2731  41.4949
    44.4315  45.2728

          k = 0.2000 0.2000 0.0000 (   810 PWs)   bands (ev):

   -22.2151  -4.8289  -4.7614  -3.8257  11.0474  12.4597  13.4755  15.9185
    17.7265  18.2739  22.4740  23.2064  25.8089  28.0144  28.0945  30.9968
    31.9533  32.9150  34.2811  35.2250  37.8685  37.8827  40.3834  41.2414
    44.0402  44.9562

          k = 0.1750 0.1750 0.0000 (   814 PWs)   bands (ev):

   -22.2583  -4.6717  -4.6104  -3.8600  10.8090  12.2162  12.9760  16.3959
    17.9951  18.5321  22.7575  23.3703  25.7748  27.3764  27.7240  30.3711
    32.6820  32.6993  33.6947  35.6605  36.6415  38.7646  41.0366  41.0976
    43.6820  44.6775

          k = 0.1500 0.1500 0.0000 (   806 PWs)   bands (ev):

   -22.2979  -4.5185  -4.4663  -3.8917  10.5562  11.9474  12.5249  16.9885
    18.2877  18.7894  23.0371  23.5227  25.8364  26.6544  27.5161  29.7926
    32.0983  32.9907  33.5094  35.3624  36.4838  39.8106  40.8928  41.9500
    43.3654  44.4504

          k = 0.1250 0.1250 0.0000 (   804 PWs)   bands (ev):

   -22.3331  -4.3748  -4.3337  -3.9199  10.2982  11.7041  12.1291  17.6291
    18.5980  19.0376  23.2972  23.6449  25.9640  26.0143  27.4012  29.2705
    31.4134  32.2678  34.1149  34.3331  37.4734  40.8269  40.9061  42.8158
    43.0945  44.2970

          k = 0.1000 0.1000 0.0000 (   809 PWs)   bands (ev):

   -22.3631  -4.2463  -4.2171  -3.9441  10.0510  11.5066  11.7951  18.2659
    18.9153  19.2666  23.5218  23.7338  25.3279  26.3121  27.3879  28.8158
    30.7294  31.5666  32.9320  35.1250  38.5429  40.8655  41.9567  42.8714
    43.5823  44.2784

          k = 0.0750 0.0750 0.0000 (   805 PWs)   bands (ev):

   -22.3871  -4.1386  -4.1208  -3.9635   9.8339  11.3581  11.5285  18.8494
    19.2220  19.4646  23.6981  23.8001  24.7695  26.7150  27.4758  28.4415
    30.1021  30.9143  31.8394  35.8298  39.6516  41.0472  42.6973  42.7585
    44.0103  44.5829

          k = 0.0500 0.0500 0.0000 (   805 PWs)   bands (ev):

   -22.4047  -4.0573  -4.0488  -3.9777   9.6651  11.2558  11.3342  19.3258
    19.4905  19.6188  23.8203  23.8545  24.3195  27.1924  27.6445  28.1607
    29.5831  30.3430  30.8692  36.3831  40.7622  41.4131  42.5727  43.1061
    43.9769  44.8199

          k = 0.0250 0.0250 0.0000 (   805 PWs)   bands (ev):

   -22.4154  -4.0065  -4.0043  -3.9863   9.5583  11.1960  11.2160  19.6407
    19.6811  19.7173  23.8903  23.8963  24.0196  27.6739  27.8345  27.9861
    29.2318  29.9138  30.0925  36.7308  41.8089  41.9725  42.4979  43.1956
    43.6259  43.8555

          k = 0.0000 0.0000 0.0000 (   799 PWs)   bands (ev):

   -22.4190  -3.9892  -3.9892  -3.9892   9.5218  11.1764  11.1764  19.7513
    19.7513  19.7513  23.9129  23.9129  23.9129  27.9268  27.9268  27.9268
    29.1051  29.7423  29.7423  36.8483  42.4730  42.4730  42.4730  43.2116
    43.2116  43.2116

          k = 0.0250 0.0250 0.0250 (   808 PWs)   bands (ev):

   -22.4136  -4.0062  -4.0028  -4.0028   9.5767  11.2208  11.2208  19.6085
    19.6617  19.6617  23.9447  23.9447  23.9506  27.7064  27.7064  27.9530
    29.2979  30.1249  30.1249  36.6697  41.5539  42.1264  42.1264  43.5657
    43.5657  43.9590

          k = 0.0500 0.0500 0.0500 (   805 PWs)   bands (ev):

   -22.3976  -4.0555  -4.0430  -4.0430   9.7386  11.3530  11.3530  19.2234
    19.4011  19.4011  24.0379  24.0379  24.0490  27.3367  27.3367  28.0313
    29.8472  30.9745  30.9745  36.1147  40.4615  41.6032  41.6032  43.9298
    43.9298  44.6519

          k = 0.0750 0.0750 0.0750 (   805 PWs)   bands (ev):

   -22.3712  -4.1338  -4.1075  -4.1075   9.9989  11.5700  11.5700  18.6887
    18.9922  18.9922  24.1828  24.1871  24.1871  27.0565  27.0565  28.1618
    30.6827  32.0301  32.0301  35.1836  39.6280  41.1050  41.1050  43.4128
    43.4128  45.0801

          k = 0.1000 0.1000 0.1000 (   820 PWs)   bands (ev):

   -22.3353  -4.2358  -4.1933  -4.1933  10.3425  11.8667  11.8667  18.0951
    18.4688  18.4688  24.3351  24.3858  24.3858  26.9217  26.9217  28.3442
    31.7194  33.1989  33.1989  33.9842  39.0633  40.6497  40.6497  42.3786
    42.3786  45.1326

          k = 0.1250 0.1250 0.1250 (   820 PWs)   bands (ev):

   -22.2905  -4.3552  -4.2962  -4.2962  10.7460  12.2365  12.2365  17.5162
    17.8694  17.8694  24.4943  24.6276  24.6276  26.9349  26.9349  28.5783
    32.4832  33.0666  34.4231  34.4231  38.6970  40.2139  40.2139  41.3479
    41.3479  44.7296

          k = 0.1500 0.1500 0.1500 (   820 PWs)   bands (ev):

   -22.2379  -4.4856  -4.4121  -4.4121  11.1732  12.6694  12.6694  17.0171
    17.2323  17.2323  24.6430  24.9075  24.9075  27.0841  27.0841  28.8638
    31.2421  34.2046  35.6148  35.6148  38.4940  39.6901  39.6901  40.5781
    40.5781  44.1067

          k = 0.1750 0.1750 0.1750 (   820 PWs)   bands (ev):

   -22.1788  -4.6211  -4.5364  -4.5364  11.5702  13.1499  13.1499  16.5950
    16.5950  16.6676  24.7438  25.2220  25.2220  27.3539  27.3539  29.2001
    29.9823  35.3854  36.5114  36.5114  38.4979  39.1417  39.1417  40.2722
    40.2722  43.4322

          k = 0.2000 0.2000 0.2000 (   820 PWs)   bands (ev):

   -22.1147  -4.7564  -4.6649  -4.6649  11.8661  13.6433  13.6433  16.0080
    16.0080  16.5456  24.7158  25.5688  25.5688  27.7290  27.7290  28.9126
    29.5866  36.2846  36.5077  36.5077  38.8487  39.1171  39.1171  40.4749
    40.4749  42.8177

          k = 0.2250 0.2250 0.2250 (   826 PWs)   bands (ev):

   -22.0469  -4.8874  -4.7938  -4.7938  12.0023  14.0340  14.0340  15.5968
    15.5968  16.7119  24.4239  25.9460  25.9460  28.1908  28.1946  28.1946
    30.0224  35.7636  35.7636  36.7366  39.2636  39.2636  39.4969  41.3492
    41.3492  42.4766

          k = 0.2500 0.2500 0.2500 (   811 PWs)   bands (ev):

   -21.9773  -5.0107  -4.9197  -4.9197  11.9787  14.0294  14.0294  15.6605
    15.6605  17.1649  23.7881  26.3509  26.3509  27.9096  28.7343  28.7343
    30.5065  34.8261  34.8261  36.9188  39.3236  39.3236  39.7785  42.5175
    42.5175  42.8805

          k = 0.2750 0.2750 0.2750 (   823 PWs)   bands (ev):

   -21.9075  -5.1242  -5.0397  -5.0397  11.8507  13.6596  13.6596  16.1723
    16.1723  17.8442  22.9114  26.7776  26.7776  27.9736  29.3263  29.3263
    31.0367  33.8719  33.8719  37.0192  39.3799  39.3799  39.4573  43.3849
    43.3849  43.9851

          k = 0.3000 0.3000 0.3000 (   820 PWs)   bands (ev):

   -21.8391  -5.2261  -5.1515  -5.1515  11.6812  13.2035  13.2035  16.8551
    16.8551  18.6786  21.9460  27.2133  27.2133  28.2372  29.9271  29.9271
    31.6111  32.9887  32.9887  37.1067  38.9177  39.4412  39.4412  43.2922
    43.2922  44.6060

          k = 0.3250 0.3250 0.3250 (   814 PWs)   bands (ev):

   -21.7741  -5.3159  -5.2532  -5.2532  11.5139  12.7588  12.7588  17.6112
    17.6112  19.6102  20.9865  27.6263  27.6263  28.6129  30.4013  30.4013
    32.2261  32.3443  32.3443  37.1788  38.3684  39.4494  39.4494  42.6805
    42.6805  43.5979

          k = 0.3500 0.3500 0.3500 (   817 PWs)   bands (ev):

   -21.7139  -5.3930  -5.3433  -5.3433  11.3733  12.3546  12.3546  18.4108
    18.4108  20.0695  20.6075  27.9316  27.9316  29.0569  30.4379  30.4379
    32.3238  32.3238  32.8761  37.1240  37.9843  39.2672  39.2672  42.2051
    42.2051  42.2067

          k = 0.3750 0.3750 0.3750 (   816 PWs)   bands (ev):

   -21.6601  -5.4576  -5.4210  -5.4210  11.2704  12.0025  12.0025  19.2398
    19.2398  19.2518  21.6043  27.9312  27.9312  29.5464  30.2774  30.2774
    32.8648  32.8648  33.5526  36.7839  37.9336  38.7805  38.7805  40.8165
    42.1322  42.1322

          k = 0.4000 0.4000 0.4000 (   816 PWs)   bands (ev):

   -21.6141  -5.5098  -5.4853  -5.4853  11.2068  11.7088  11.7088  18.5361
    20.0876  20.0876  22.5766  27.4840  27.4840  30.0667  30.4232  30.4232
    33.5734  33.5734  34.2406  36.3248  37.9771  38.0815  38.0815  39.5863
    42.4076  42.4076

          k = 0.4250 0.4250 0.4250 (   822 PWs)   bands (ev):

   -21.5770  -5.5500  -5.5357  -5.5357  11.1768  11.4772  11.4772  17.9474
    20.9415  20.9415  23.4646  26.7650  26.7650  30.6033  30.8080  30.8080
    34.2901  34.2901  34.9133  35.8929  37.3374  37.3374  37.5648  38.9732
    42.6775  42.6775

          k = 0.4500 0.4500 0.4500 (   837 PWs)   bands (ev):

   -21.5498  -5.5785  -5.5720  -5.5720  11.1699  11.3102  11.3102  17.5064
    21.7773  21.7773  24.1961  25.9668  25.9668  31.1289  31.2499  31.2499
    34.9153  34.9153  35.5209  35.5496  36.6473  36.6798  36.6798  39.0257
    42.1797  42.1797

          k = 0.4750 0.4750 0.4750 (   840 PWs)   bands (ev):

   -21.5332  -5.5954  -5.5938  -5.5938  11.1732  11.2094  11.2094  17.2322
    22.5216  22.5216  24.6867  25.2301  25.2301  31.5680  31.6110  31.6110
    35.3146  35.3146  35.3514  35.8381  35.9737  36.2545  36.2545  39.1755
    41.6638  41.6638

          k = 0.5000 0.5000 0.5000 (   840 PWs)   bands (ev):

   -21.5277  -5.6010  -5.6010  -5.6010  11.1757  11.1757  11.1757  17.1390
    22.8916  22.8916  24.8607  24.8607  24.8607  31.7555  31.7555  31.7555
    35.3865  35.4102  35.4102  35.4102  36.1475  36.1475  36.1475  39.2406
    41.4663  41.4663

     Writing all to output data dir ./work/POSCAR.save/

     init_run     :      0.25s CPU      0.27s WALL (       1 calls)
     electrons    :      2.30s CPU      2.64s WALL (       1 calls)

     Called by init_run:
     wfcinit      :      0.00s CPU      0.01s WALL (       1 calls)
     potinit      :      0.17s CPU      0.18s WALL (       1 calls)
     hinit0       :      0.06s CPU      0.06s WALL (       1 calls)

     Called by electrons:
     c_bands      :      2.30s CPU      2.63s WALL (       1 calls)
     v_of_rho     :      0.00s CPU      0.00s WALL (       1 calls)
     newd         :      0.00s CPU      0.00s WALL (       1 calls)
     PAW_pot      :      0.04s CPU      0.04s WALL (       1 calls)

     Called by c_bands:
     init_us_2    :      0.00s CPU      0.00s WALL (      91 calls)
     init_us_2:cp :      0.00s CPU      0.00s WALL (      91 calls)
     cegterg      :      2.13s CPU      2.24s WALL (     108 calls)

     Called by *egterg:
     cdiaghg      :      0.78s CPU      0.82s WALL (    1614 calls)
     h_psi        :      1.14s CPU      1.20s WALL (    1722 calls)
     s_psi        :      0.01s CPU      0.01s WALL (    1722 calls)
     g_psi        :      0.01s CPU      0.01s WALL (    1523 calls)

     Called by h_psi:
     h_psi:calbec :      0.05s CPU      0.05s WALL (    1722 calls)
     vloc_psi     :      1.07s CPU      1.13s WALL (    1722 calls)
     add_vuspsi   :      0.01s CPU      0.02s WALL (    1722 calls)

     General routines
     calbec       :      0.05s CPU      0.05s WALL (    1722 calls)
     fft          :      0.03s CPU      0.04s WALL (      13 calls)
     ffts         :      0.13s CPU      0.13s WALL (       1 calls)
     fftw         :      0.98s CPU      1.03s WALL (   49672 calls)
     interpolate  :      0.13s CPU      0.13s WALL (       1 calls)
     davcio       :      0.00s CPU      0.15s WALL (     182 calls)

     Parallel routines

     PWSCF        :      2.87s CPU      3.90s WALL


   This run was terminated on:  22:39: 7  15May2024            

=------------------------------------------------------------------------------=
   JOB DONE.
=------------------------------------------------------------------------------=
