
     Program PWSCF v.7.1 starts on 15May2024 at 22:38:59 

     This program is part of the open-source Quantum ESPRESSO suite
     for quantum simulation of materials; please cite
         "P. Giannozzi et al., J. Phys.:Condens. Matter 21 395502 (2009);
         "P. Giannozzi et al., J. Phys.:Condens. Matter 29 465901 (2017);
         "P. Giannozzi et al., J. Chem. Phys. 152 154105 (2020);
          URL http://www.quantum-espresso.org", 
     in publications or presentations arising from this work. More details at
     http://www.quantum-espresso.org/quote

     Parallel version (MPI & OpenMP), running on      10 processor cores
     Number of MPI processes:                10
     Threads/MPI process:                     1

     MPI processes distributed on     1 nodes
     14555 MiB available memory on the printing compute node when the environment starts

     Waiting for input...
     Reading input from standard input

     Current dimensions of program PWSCF are:
     Max number of different atomic species (ntypx) = 10
     Max number of k-points (npk) =  40000
     Max angular momentum in pseudopotentials (lmaxx) =  4
     file Ce.pbe-spdn-kjpaw_psl.1.0.0.UPF: wavefunction(s)  5D renormalized
     Message from routine setup:
     using ibrav=0 with symmetry is DISCOURAGED, use correct ibrav instead

     R & G space division:  proc/nbgrp/npool/nimage =      10
     Subspace diagonalization in iterative solution of the eigenvalue problem:
     a serial algorithm will be used


     Parallelization info
     --------------------
     sticks:   dense  smooth     PW     G-vecs:    dense   smooth      PW
     Min          50      42     13                  870      660     123
     Max          51      43     14                  871      665     124
     Sum         509     421    137                 8709     6619    1237

     Using Slab Decomposition



     bravais-lattice index     =            0
     lattice parameter (alat)  =       5.9939  a.u.
     unit-cell volume          =     215.3388 (a.u.)^3
     number of atoms/cell      =            1
     number of atomic types    =            1
     number of electrons       =        11.00
     number of Kohn-Sham states=           26
     kinetic-energy cutoff     =      37.0000  Ry
     charge density cutoff     =     179.0000  Ry
     scf convergence threshold =      7.3E-05
     mixing beta               =       0.7000
     number of iterations used =            8  plain     mixing
     Exchange-correlation= SLA  PW   PBX  PBC
                           (   1   4   3   4   0   0   0)

     celldm(1)=   5.993871  celldm(2)=   0.000000  celldm(3)=   0.000000
     celldm(4)=   0.000000  celldm(5)=   0.000000  celldm(6)=   0.000000

     crystal axes: (cart. coord. in units of alat)
               a(1) = (   1.000000   0.000000   0.000000 )  
               a(2) = (   0.000000   1.000000   0.000000 )  
               a(3) = (   0.000000   0.000000   1.000000 )  

     reciprocal axes: (cart. coord. in units 2 pi/alat)
               b(1) = (  1.000000  0.000000  0.000000 )  
               b(2) = (  0.000000  1.000000  0.000000 )  
               b(3) = (  0.000000  0.000000  1.000000 )  


     PseudoPot. # 1 for Ce read from file:
     ./../../../../pseudo/psl100_PBE/Ce.pbe-spdn-kjpaw_psl.1.0.0.UPF
     MD5 check sum: 1a25380276e46fcecd5a173acdad072c
     Pseudo is Projector augmented-wave + core cor, Zval = 11.0
     Generated using 'atomic' code by A. Dal Corso  v.7.2
     Shape of augmentation charge: PSQ
     Using radial grid of 1255 points,  6 beta functions with: 
                l(1) =   0
                l(2) =   0
                l(3) =   1
                l(4) =   1
                l(5) =   2
                l(6) =   2
     Q(r) pseudized with 0 coefficients 


     atomic species   valence    mass     pseudopotential
        Ce            11.00   140.11600     Ce( 1.00)

     48 Sym. Ops., with inversion, found



   Cartesian axes

     site n.     atom                  positions (alat units)
         1           Ce  tau(   1) = (   0.0000000   0.0000000   0.0000000  )

     number of k points=    56  Methfessel-Paxton smearing, width (Ry)=  0.0200
                       cart. coord. in units 2pi/alat
        k(    1) = (   0.0000000   0.0000000   0.0000000), wk =   0.0020000
        k(    2) = (   0.0000000   0.0000000   0.1000000), wk =   0.0120000
        k(    3) = (   0.0000000   0.0000000   0.2000000), wk =   0.0120000
        k(    4) = (   0.0000000   0.0000000   0.3000000), wk =   0.0120000
        k(    5) = (   0.0000000   0.0000000   0.4000000), wk =   0.0120000
        k(    6) = (   0.0000000   0.0000000  -0.5000000), wk =   0.0060000
        k(    7) = (   0.0000000   0.1000000   0.1000000), wk =   0.0240000
        k(    8) = (   0.0000000   0.1000000   0.2000000), wk =   0.0480000
        k(    9) = (   0.0000000   0.1000000   0.3000000), wk =   0.0480000
        k(   10) = (   0.0000000   0.1000000   0.4000000), wk =   0.0480000
        k(   11) = (   0.0000000   0.1000000  -0.5000000), wk =   0.0240000
        k(   12) = (   0.0000000   0.2000000   0.2000000), wk =   0.0240000
        k(   13) = (   0.0000000   0.2000000   0.3000000), wk =   0.0480000
        k(   14) = (   0.0000000   0.2000000   0.4000000), wk =   0.0480000
        k(   15) = (   0.0000000   0.2000000  -0.5000000), wk =   0.0240000
        k(   16) = (   0.0000000   0.3000000   0.3000000), wk =   0.0240000
        k(   17) = (   0.0000000   0.3000000   0.4000000), wk =   0.0480000
        k(   18) = (   0.0000000   0.3000000  -0.5000000), wk =   0.0240000
        k(   19) = (   0.0000000   0.4000000   0.4000000), wk =   0.0240000
        k(   20) = (   0.0000000   0.4000000  -0.5000000), wk =   0.0240000
        k(   21) = (   0.0000000  -0.5000000  -0.5000000), wk =   0.0060000
        k(   22) = (   0.1000000   0.1000000   0.1000000), wk =   0.0160000
        k(   23) = (   0.1000000   0.1000000   0.2000000), wk =   0.0480000
        k(   24) = (   0.1000000   0.1000000   0.3000000), wk =   0.0480000
        k(   25) = (   0.1000000   0.1000000   0.4000000), wk =   0.0480000
        k(   26) = (   0.1000000   0.1000000  -0.5000000), wk =   0.0240000
        k(   27) = (   0.1000000   0.2000000   0.2000000), wk =   0.0480000
        k(   28) = (   0.1000000   0.2000000   0.3000000), wk =   0.0960000
        k(   29) = (   0.1000000   0.2000000   0.4000000), wk =   0.0960000
        k(   30) = (   0.1000000   0.2000000  -0.5000000), wk =   0.0480000
        k(   31) = (   0.1000000   0.3000000   0.3000000), wk =   0.0480000
        k(   32) = (   0.1000000   0.3000000   0.4000000), wk =   0.0960000
        k(   33) = (   0.1000000   0.3000000  -0.5000000), wk =   0.0480000
        k(   34) = (   0.1000000   0.4000000   0.4000000), wk =   0.0480000
        k(   35) = (   0.1000000   0.4000000  -0.5000000), wk =   0.0480000
        k(   36) = (   0.1000000  -0.5000000  -0.5000000), wk =   0.0120000
        k(   37) = (   0.2000000   0.2000000   0.2000000), wk =   0.0160000
        k(   38) = (   0.2000000   0.2000000   0.3000000), wk =   0.0480000
        k(   39) = (   0.2000000   0.2000000   0.4000000), wk =   0.0480000
        k(   40) = (   0.2000000   0.2000000  -0.5000000), wk =   0.0240000
        k(   41) = (   0.2000000   0.3000000   0.3000000), wk =   0.0480000
        k(   42) = (   0.2000000   0.3000000   0.4000000), wk =   0.0960000
        k(   43) = (   0.2000000   0.3000000  -0.5000000), wk =   0.0480000
        k(   44) = (   0.2000000   0.4000000   0.4000000), wk =   0.0480000
        k(   45) = (   0.2000000   0.4000000  -0.5000000), wk =   0.0480000
        k(   46) = (   0.2000000  -0.5000000  -0.5000000), wk =   0.0120000
        k(   47) = (   0.3000000   0.3000000   0.3000000), wk =   0.0160000
        k(   48) = (   0.3000000   0.3000000   0.4000000), wk =   0.0480000
        k(   49) = (   0.3000000   0.3000000  -0.5000000), wk =   0.0240000
        k(   50) = (   0.3000000   0.4000000   0.4000000), wk =   0.0480000
        k(   51) = (   0.3000000   0.4000000  -0.5000000), wk =   0.0480000
        k(   52) = (   0.3000000  -0.5000000  -0.5000000), wk =   0.0120000
        k(   53) = (   0.4000000   0.4000000   0.4000000), wk =   0.0160000
        k(   54) = (   0.4000000   0.4000000  -0.5000000), wk =   0.0240000
        k(   55) = (   0.4000000  -0.5000000  -0.5000000), wk =   0.0120000
        k(   56) = (  -0.5000000  -0.5000000  -0.5000000), wk =   0.0020000

     Dense  grid:     8709 G-vectors     FFT dimensions: (  25,  25,  25)

     Smooth grid:     6619 G-vectors     FFT dimensions: (  24,  24,  24)

     Estimated max dynamical RAM per process >       5.90 MB

     Estimated total dynamical RAM >      59.03 MB

     Initial potential from superposition of free atoms

     starting charge      10.9735, renormalised to      11.0000
     Starting wfcs are   13 randomized atomic wfcs +   13 random wfcs
     Checking if some PAW data can be deallocated... 

     total cpu time spent up to now is        0.6 secs

     per-process dynamical memory:    13.0 Mb

     Self-consistent Calculation

     iteration #  1     ecut=    37.00 Ry     beta= 0.70
     Davidson diagonalization with overlap
     ethr =  1.00E-02,  avg # of iterations =  6.9

     Threshold (ethr) on eigenvalues was too large:
     Diagonalizing with lowered threshold

     Davidson diagonalization with overlap
     ethr =  7.61E-05,  avg # of iterations =  3.4

     total cpu time spent up to now is        1.8 secs

     total energy              =    -471.68989034 Ry
     estimated scf accuracy    <       0.00857374 Ry

     iteration #  2     ecut=    37.00 Ry     beta= 0.70
     Davidson diagonalization with overlap
     ethr =  7.79E-05,  avg # of iterations =  1.6

     total cpu time spent up to now is        2.2 secs

     total energy              =    -471.69193407 Ry
     estimated scf accuracy    <       0.00044633 Ry

     iteration #  3     ecut=    37.00 Ry     beta= 0.70
     Davidson diagonalization with overlap
     ethr =  4.06E-06,  avg # of iterations =  3.1

     total cpu time spent up to now is        2.6 secs

     End of self-consistent calculation

          k = 0.0000 0.0000 0.0000 (   799 PWs)   bands (ev):

   -22.4156  -3.9871  -3.9871  -3.9871   9.5209  11.1747  11.1747  19.7525
    19.7525  19.7525  23.9108  23.9108  23.9108  27.9241  27.9241  27.9241
    29.1085  29.7415  29.7415  36.8485  42.4704  42.4704  42.4704  43.2134
    43.2134  43.2135

          k = 0.0000 0.0000 0.1000 (   807 PWs)   bands (ev):

   -22.3876  -4.2541  -3.9645  -3.9645   9.7809  11.2495  11.5845  19.0262
    19.0262  19.7970  22.9765  24.5885  24.5885  26.1940  28.4198  28.4198
    29.5297  30.7007  31.8021  36.0749  40.3475  40.3475  41.6132  43.5469
    43.5944  45.3311

          k = 0.0000 0.0000 0.2000 (   808 PWs)   bands (ev):

   -22.3131  -4.8963  -3.9045  -3.9045  10.3228  11.4569  12.7921  17.7402
    17.7402  19.9177  21.4706  24.1601  25.6128  25.6128  29.8057  29.9752
    29.9752  33.2227  34.6718  34.8357  38.1934  38.2476  38.2476  40.5536
    46.0557  46.6867

          k = 0.0000 0.0000 0.3000 (   812 PWs)   bands (ev):

   -22.2184  -5.6045  -3.8288  -3.8288  10.9502  11.7411  14.2068  16.6206
    16.6206  20.0751  20.7216  22.5324  26.3816  26.3816  29.7904  32.1820
    32.1820  33.4246  34.3682  35.6457  36.8374  36.8374  38.1563  39.5102
    46.8754  46.8756

          k = 0.0000 0.0000 0.4000 (   816 PWs)   bands (ev):

   -22.1396  -6.1264  -3.7663  -3.7663  11.5773  12.0001  14.7271  15.8918
    15.8918  20.2101  21.4591  21.7979  26.9230  26.9230  27.9978  32.5969
    32.8657  33.4749  33.4749  35.4906  37.3693  37.3693  41.6313  41.7375
    44.8010  44.8010

          k = 0.0000 0.0000-0.5000 (   820 PWs)   bands (ev):

   -22.1089  -6.3162  -3.7421  -3.7421  11.8928  12.1078  14.6396  15.6404
    15.6404  20.2637  21.0790  23.8176  25.5146  27.1376  27.1376  32.3077
    32.9105  33.4893  33.4893  34.9760  39.1509  39.1509  42.3833  42.3833
    44.8431  45.1177

          k = 0.0000 0.1000 0.1000 (   809 PWs)   bands (ev):

   -22.3597  -4.2443  -4.2151  -3.9420  10.0501  11.5051  11.7936  18.2661
    18.9158  19.2674  23.5199  23.7332  25.3265  26.3104  27.3855  28.8135
    30.7316  31.5654  32.9309  35.1243  38.5428  40.8659  41.9569  42.8688
    43.5819  44.2788

          k = 0.0000 0.1000 0.2000 (   820 PWs)   bands (ev):

   -22.2854  -4.8689  -4.1643  -3.8823  10.5866  11.7827  12.8888  17.0024
    17.7837  19.2798  22.0491  24.5401  24.7582  26.4916  28.8012  30.1717
    31.3290  33.5689  33.7782  35.6452  36.5827  38.4095  39.5835  42.4173
    43.4070  44.8098

          k = 0.0000 0.1000 0.3000 (   823 PWs)   bands (ev):

   -22.1910  -5.5733  -4.0829  -3.8071  11.1850  12.0803  14.0187  16.3011
    16.6833  19.4539  21.1061  23.2263  25.2429  27.3122  30.9179  31.2162
    31.6021  33.0588  34.1817  35.4579  37.0602  38.1891  38.6532  41.1209
    43.6497  46.8413

          k = 0.0000 0.1000 0.4000 (   822 PWs)   bands (ev):

   -22.1124  -6.0930  -4.0154  -3.7449  11.7818  12.3861  13.8448  15.9609
    16.4705  19.6103  21.7706  22.3087  25.7528  27.8718  28.5948  30.9018
    31.8973  33.8176  34.9622  35.9875  37.8688  37.9233  41.3136  42.4410
    44.1807  44.4238

          k = 0.0000 0.1000-0.5000 (   828 PWs)   bands (ev):

   -22.0818  -6.2820  -3.9893  -3.7209  12.0741  12.5990  13.4796  15.7111
    16.4731  19.6731  21.7920  23.6303  25.6035  26.5689  28.1071  30.5426
    31.6670  34.0659  35.4316  37.0079  38.5312  39.1991  41.0850  42.5774
    42.7283  45.0804

          k = 0.0000 0.2000 0.2000 (   810 PWs)   bands (ev):

   -22.2116  -4.8272  -4.7596  -3.8235  11.0465  12.4589  13.4743  15.9177
    17.7266  18.2743  22.4724  23.2056  25.8088  28.0120  28.0938  30.9952
    31.9517  32.9158  34.2801  35.2252  37.8685  37.8816  40.3827  41.2425
    44.0377  44.9582

          k = 0.0000 0.2000 0.3000 (   817 PWs)   bands (ev):

   -22.1179  -5.4905  -4.6974  -3.7495  11.4987  12.5727  14.1996  16.0661
    16.8494  18.2732  21.5494  23.5922  25.0632  28.9260  29.7452  30.6994
    32.0933  32.8853  33.1451  36.3147  37.2603  39.5292  40.6159  41.4334
    43.7186  46.1102

          k = 0.0000 0.2000 0.4000 (   820 PWs)   bands (ev):

   -22.0400  -6.0037  -4.6198  -3.6884  11.8678  12.4011  14.1701  16.1512
    17.0821  18.4436  21.8334  23.9210  24.5299  28.7964  28.8866  30.2244
    30.3809  34.1009  35.9489  36.5982  38.3747  39.7156  40.3866  41.9160
    43.2395  45.1852

          k = 0.0000 0.2000-0.5000 (   818 PWs)   bands (ev):

   -22.0096  -6.1906  -4.5895  -3.6647  11.9792  12.3345  14.1696  15.9064
    17.2756  18.5172  22.9436  23.5156  25.8393  25.9148  28.6002  29.8015
    30.4037  36.4480  37.3972  37.8000  38.0981  38.6347  39.3298  41.0758
    43.2173  45.2761

          k = 0.0000 0.3000 0.3000 (   822 PWs)   bands (ev):

   -22.0252  -5.4128  -5.3524  -3.6769  11.4480  12.3356  15.7935  16.3182
    16.9409  17.3434  21.5368  22.9139  26.2812  28.2537  29.7592  30.8641
    32.4182  32.4252  33.8302  34.7215  39.1464  39.5249  42.4620  43.0373
    44.1278  45.5040

          k = 0.0000 0.3000 0.4000 (   825 PWs)   bands (ev):

   -21.9480  -5.8898  -5.2930  -3.6171  10.9614  12.5473  16.2221  16.4079
    17.3803  17.5838  21.5820  23.5870  25.8923  27.3729  28.6101  30.0462
    32.7681  33.2230  34.3873  36.4317  39.6821  40.1004  41.9220  42.4602
    44.6025  45.4561

          k = 0.0000 0.3000-0.5000 (   814 PWs)   bands (ev):

   -21.9180  -6.0738  -5.2588  -3.5940  10.7488  12.6817  16.1723  16.3155
    17.4577  17.9150  22.0471  25.1439  25.7816  25.8852  27.0476  29.3764
    33.3698  34.2323  36.0347  36.7953  39.4998  39.7107  39.9742  43.8451
    44.3988  44.5801

          k = 0.0000 0.4000 0.4000 (   822 PWs)   bands (ev):

   -21.8716  -5.8043  -5.7827  -3.5584  10.2160  12.8674  16.5910  16.7256
    17.9418  18.0016  21.5112  24.0776  25.6920  26.3781  28.2881  30.6139
    31.6291  32.8071  36.2865  36.9697  38.1719  42.3436  43.1883  43.3943
    43.4001  43.8649

          k = 0.0000 0.4000-0.5000 (   816 PWs)   bands (ev):

   -21.8418  -5.9758  -5.7561  -3.5356   9.9529  13.0097  16.4128  16.7556
    18.1371  18.4235  21.8965  25.2813  25.8730  25.9007  26.0248  30.5207
    31.2250  35.1962  35.6221  36.7250  39.6457  40.8239  41.4326  43.4245
    44.2058  45.7001

          k = 0.0000-0.5000-0.5000 (   840 PWs)   bands (ev):

   -21.8123  -5.9376  -5.9376  -3.5132   9.6779  13.1507  16.5119  16.5119
    18.6363  18.6363  22.5101  24.9340  25.6632  26.0677  26.0677  28.5760
    32.8953  34.8964  34.8964  39.6477  39.6499  39.7808  41.1803  41.1803
    46.0963  46.0973

          k = 0.1000 0.1000 0.1000 (   820 PWs)   bands (ev):

   -22.3319  -4.2339  -4.1913  -4.1913  10.3418  11.8653  11.8653  18.0952
    18.4691  18.4691  24.3354  24.3843  24.3843  26.9198  26.9198  28.3415
    31.7214  33.1977  33.1977  33.9834  39.0644  40.6491  40.6491  42.3777
    42.3777  45.1328

          k = 0.1000 0.1000 0.2000 (   817 PWs)   bands (ev):

   -22.2577  -4.8416  -4.1529  -4.1280  10.8957  12.0654  12.9745  17.0476
    17.0916  18.5498  22.8252  25.0903  25.1688  25.9078  28.6629  29.4873
    32.1347  32.7444  34.8387  35.9264  37.6684  38.6119  38.6320  42.5416
    42.8389  44.4922

          k = 0.1000 0.1000 0.3000 (   812 PWs)   bands (ev):

   -22.1636  -5.5424  -4.0710  -4.0481  11.4846  12.3459  13.9336  15.8931
    16.7409  18.7559  21.7620  23.6913  25.7555  26.7414  29.9648  31.7084
    31.7889  32.2828  34.7481  36.4604  36.8459  38.2717  39.1271  42.4997
    42.9477  44.9358

          k = 0.1000 0.1000 0.4000 (   821 PWs)   bands (ev):

   -22.0852  -6.0599  -4.0032  -3.9820  12.1179  12.6158  13.6175  15.0897
    17.4401  18.9457  22.1793  22.7052  26.1580  27.3205  28.9708  29.2102
    33.5411  33.8336  34.6993  36.3542  36.9102  39.6145  41.2623  42.7109
    43.5532  44.0946

          k = 0.1000 0.1000-0.5000 (   820 PWs)   bands (ev):

   -22.0547  -6.2481  -3.9769  -3.9565  12.5982  12.7366  13.1401  14.7994
    17.6218  19.0261  22.3558  23.7105  25.6508  27.3409  27.5438  28.7144
    33.7704  33.7848  35.2047  38.5488  38.5812  38.5988  41.2528  41.5161
    41.8859  45.1483

          k = 0.1000 0.2000 0.2000 (   814 PWs)   bands (ev):

   -22.1842  -4.8002  -4.7333  -4.0768  11.3942  12.7030  13.5229  15.9822
    17.1550  17.4103  23.5974  23.9862  25.9937  27.2824  28.0668  30.0800
    30.5713  34.3490  35.3379  36.6084  37.7270  38.2426  40.2413  40.4400
    41.9260  44.7559

          k = 0.1000 0.2000 0.3000 (   815 PWs)   bands (ev):

   -22.0907  -5.4602  -4.6714  -3.9975  11.7898  12.8466  14.2212  15.5038
    16.9308  17.5493  22.5147  24.4607  25.2396  27.8070  29.1268  30.5271
    32.1627  32.9182  34.0193  37.1708  37.8925  39.0740  40.1334  41.8124
    43.8204  44.7734

          k = 0.1000 0.2000 0.4000 (   819 PWs)   bands (ev):

   -22.0130  -5.9714  -4.5943  -3.9318  11.9961  12.8422  14.2079  14.8915
    17.7532  18.2363  22.4332  24.3557  24.9938  27.1595  29.0232  29.7264
    32.0107  34.4461  35.0307  37.5372  38.0726  38.6993  41.5167  42.3628
    43.2004  44.6416

          k = 0.1000 0.2000-0.5000 (   816 PWs)   bands (ev):

   -21.9827  -6.1575  -4.5643  -3.9064  12.0016  12.8989  14.2123  14.5992
    17.8562  18.6757  23.4908  23.8787  25.4937  26.4593  27.2131  29.6713
    31.8737  36.3479  37.1037  37.8777  38.1902  38.5436  39.0745  41.2768
    42.9897  44.8075

          k = 0.1000 0.3000 0.3000 (   818 PWs)   bands (ev):

   -21.9982  -5.3829  -5.3236  -3.9200  11.5541  12.8099  15.4390  15.5192
    16.9152  17.4115  22.6798  23.5443  25.8555  27.6771  29.8588  31.4740
    32.3790  32.4965  33.1479  35.0196  40.1062  40.2522  41.5928  43.1181
    43.5370  43.7752

          k = 0.1000 0.3000 0.4000 (   824 PWs)   bands (ev):

   -21.9213  -5.8584  -5.2645  -3.8559  11.0459  13.0701  15.1091  15.6837
    17.3168  18.7732  22.4363  23.9410  25.0971  27.2119  29.2242  31.0056
    32.3476  33.1063  34.3920  35.7667  39.8997  40.7251  41.0395  43.4429
    43.9523  44.8149

          k = 0.1000 0.3000-0.5000 (   814 PWs)   bands (ev):

   -21.8913  -6.0417  -5.2306  -3.8311  10.8353  13.2349  14.8321  15.7669
    17.4380  19.3917  22.8350  24.3522  25.4235  26.0646  27.5740  30.7080
    32.5325  34.3101  36.1032  36.9068  38.6669  38.9653  41.0127  42.6259
    44.7716  45.1326

          k = 0.1000 0.4000 0.4000 (   820 PWs)   bands (ev):

   -21.8450  -5.7736  -5.7524  -3.7932  10.3146  13.4066  15.3407  15.4127
    18.8839  19.2670  22.2182  23.5094  24.8063  28.0178  28.3986  30.9123
    31.9002  32.8929  35.6572  36.2414  38.2521  42.3254  42.4899  42.8781
    44.3937  44.4900

          k = 0.1000 0.4000-0.5000 (   822 PWs)   bands (ev):

   -21.8154  -5.9447  -5.7260  -3.7689  10.0549  13.5775  15.1101  15.4921
    19.2064  19.8971  22.3661  23.2774  26.1003  26.1037  27.9432  30.4989
    31.6477  35.2674  35.7511  36.0521  39.1321  39.8006  41.5455  43.0432
    44.5510  44.6535

          k = 0.1000-0.5000-0.5000 (   812 PWs)   bands (ev):

   -21.7858  -5.9068  -5.9068  -3.7448   9.7833  13.7451  15.2331  15.2331
    20.1053  20.1053  22.5445  22.8539  26.2891  26.2891  27.7840  28.5842
    33.2216  34.9715  34.9715  39.1498  39.2629  39.7693  40.1622  40.1622
    45.2684  46.0278

          k = 0.2000 0.2000 0.2000 (   820 PWs)   bands (ev):

   -22.1111  -4.7547  -4.6632  -4.6632  11.8660  13.6422  13.6422  16.0074
    16.0074  16.5446  24.7181  25.5685  25.5685  27.7269  27.7269  28.9112
    29.5840  36.2863  36.5072  36.5072  38.8492  39.1167  39.1167  40.4736
    40.4736  42.8183

          k = 0.2000 0.2000 0.3000 (   819 PWs)   bands (ev):

   -22.0184  -5.3799  -4.6271  -4.5743  12.0024  13.7193  14.2284  14.9261
    16.3560  17.2793  23.8304  25.2244  26.0408  27.6085  27.7821  30.5531
    31.0155  33.2782  36.0731  36.9647  37.8188  39.6668  40.8001  41.9039
    42.6163  43.2972

          k = 0.2000 0.2000 0.4000 (   813 PWs)   bands (ev):

   -21.9412  -5.8849  -4.5502  -4.5006  11.9143  13.5338  14.1563  14.5139
    16.7486  19.2523  23.2602  24.7526  25.3215  27.2071  28.4812  29.7025
    33.3994  33.6615  35.5411  36.6305  37.5045  40.0453  41.2247  42.2613
    42.5823  44.6008

          k = 0.2000 0.2000-0.5000 (   812 PWs)   bands (ev):

   -21.9112  -6.0691  -4.5200  -4.4720  11.8377  13.3717  14.1421  14.4815
    16.8821  20.2304  24.0080  24.0387  25.0292  26.9884  27.9195  28.7370
    34.5394  34.5603  36.7821  37.3195  37.9826  38.6277  40.0528  40.2706
    42.1474  45.3266

          k = 0.2000 0.3000 0.3000 (   821 PWs)   bands (ev):

   -21.9265  -5.3037  -5.2471  -4.5110  11.7169  13.5555  14.3336  15.1601
    16.7457  17.9214  23.3223  24.9588  26.5763  27.4852  30.0325  30.0781
    31.6598  32.7975  34.6777  35.3280  39.5397  40.5415  41.2091  42.6305
    42.9536  43.4174

          k = 0.2000 0.3000 0.4000 (   814 PWs)   bands (ev):

   -21.8501  -5.7747  -5.1888  -4.4379  11.2556  13.3456  14.1227  15.2396
    17.4385  19.9078  22.5034  24.4214  26.3861  27.4628  29.5791  30.8344
    32.6166  33.7408  34.3506  34.9465  38.8874  40.1335  41.3694  42.4796
    43.2416  43.9871

          k = 0.2000 0.3000-0.5000 (   816 PWs)   bands (ev):

   -21.8204  -5.9563  -5.1558  -4.4095  11.0594  13.2161  14.1031  15.3022
    17.5967  21.1637  22.4901  24.0648  26.3653  27.2247  27.9213  31.1142
    33.2194  34.0453  36.2768  36.7209  37.5685  37.8186  40.8506  41.2745
    43.1891  45.4167

          k = 0.2000 0.4000 0.4000 (   814 PWs)   bands (ev):

   -21.7744  -5.6918  -5.6718  -4.3666  10.5923  13.4823  13.7976  15.3086
    19.5418  20.6324  21.5345  24.1006  26.1859  28.7596  29.0418  30.9179
    33.1286  33.6117  34.4714  34.9083  38.4604  40.3458  41.3561  42.0384
    42.7765  43.8055

          k = 0.2000 0.4000-0.5000 (   826 PWs)   bands (ev):

   -21.7450  -5.8618  -5.6458  -4.3389  10.3448  13.4532  13.7535  15.3570
    20.0878  21.0357  22.0596  23.6090  26.8850  26.9070  29.4302  30.3340
    33.1471  34.7627  35.4678  36.1985  37.9941  38.0924  40.8981  41.8079
    42.7314  42.9252

          k = 0.2000-0.5000-0.5000 (   820 PWs)   bands (ev):

   -21.7156  -5.8248  -5.8248  -4.3115  10.0846  13.5806  13.5806  15.3948
    20.6923  22.1837  22.1837  22.6362  27.0627  27.0627  28.5279  29.8084
    34.4276  35.1789  35.1789  38.0318  38.1037  38.4339  38.4339  40.1148
    41.8446  43.8261

          k = 0.3000 0.3000 0.3000 (   820 PWs)   bands (ev):

   -21.8355  -5.2246  -5.1499  -5.1499  11.6809  13.2024  13.2024  16.8544
    16.8544  18.6771  21.9476  27.2137  27.2137  28.2373  29.9248  29.9248
    31.6088  32.9881  32.9881  37.1086  38.9171  39.4412  39.4412  43.2932
    43.2932  44.6058

          k = 0.3000 0.3000 0.4000 (   817 PWs)   bands (ev):

   -21.7598  -5.6681  -5.1136  -5.0690  11.3545  12.4443  13.1759  16.9915
    17.9745  20.6201  20.9682  26.1321  28.0848  28.3570  30.0148  30.0503
    32.6956  33.0854  33.6982  36.6325  37.9659  38.5199  40.7532  41.4009
    42.5052  44.3310

          k = 0.3000 0.3000-0.5000 (   828 PWs)   bands (ev):

   -21.7304  -5.8473  -5.0812  -5.0375  11.1817  12.1807  13.2441  17.0499
    18.2166  20.4732  22.8395  24.6711  28.0463  28.3348  28.8872  30.3129
    32.9501  35.4113  35.5020  36.3461  36.7318  37.9570  38.9497  40.0529
    43.3754  45.2933

          k = 0.3000 0.4000 0.4000 (   819 PWs)   bands (ev):

   -21.6848  -5.5878  -5.5693  -5.0105  10.9775  12.3236  12.5193  17.5882
    19.7466  19.8819  21.6532  26.1852  28.3700  29.1787  29.4963  30.4079
    33.3780  33.4218  33.9553  36.1277  37.8252  38.6749  39.7627  40.5281
    42.2017  42.8652

          k = 0.3000 0.4000-0.5000 (   820 PWs)   bands (ev):

   -21.6556  -5.7561  -5.5438  -4.9795  10.7603  12.1589  12.5315  17.6933
    19.3247  20.5587  23.5340  24.6568  28.4830  28.5087  29.7245  30.1542
    33.7247  34.9513  35.7125  36.6069  36.7555  37.3579  38.1576  40.6165
    41.6342  42.3532

          k = 0.3000-0.5000-0.5000 (   824 PWs)   bands (ev):

   -21.6266  -5.7205  -5.7205  -4.9488  10.5258  12.2794  12.2794  17.8099
    18.8907  22.7540  23.7632  23.7632  28.0843  28.6296  28.6296  30.9948
    35.4608  35.4608  36.5741  36.6505  36.9319  36.9319  37.0883  38.4327
    40.6358  42.7545

          k = 0.4000 0.4000 0.4000 (   816 PWs)   bands (ev):

   -21.6103  -5.5083  -5.4838  -5.4838  11.2059  11.7076  11.7076  18.5376
    20.0873  20.0873  22.5747  27.4831  27.4831  30.0679  30.4242  30.4242
    33.5715  33.5715  34.2389  36.3244  37.9786  38.0819  38.0819  39.5865
    42.4067  42.4068

          k = 0.4000 0.4000-0.5000 (   826 PWs)   bands (ev):

   -21.5814  -5.6679  -5.4662  -5.4505  11.0890  11.4293  11.7314  18.0855
    20.1605  21.1561  24.3485  25.0628  27.8605  30.3577  30.4264  30.6551
    33.8567  35.6593  35.6845  35.8884  36.0770  36.6476  38.6003  38.6251
    42.0704  42.6764

          k = 0.4000-0.5000-0.5000 (   836 PWs)   bands (ev):

   -21.5526  -5.6335  -5.6335  -5.4252  10.9711  11.4562  11.4562  17.6203
    20.6555  22.8536  24.6013  24.6013  26.6651  30.6702  30.6702  31.5733
    35.4499  35.5964  35.5964  36.1047  36.1047  36.3656  36.3923  38.7230
    41.1913  43.0549

          k =-0.5000-0.5000-0.5000 (   840 PWs)   bands (ev):

   -21.5239  -5.5996  -5.5996  -5.5996  11.1744  11.1744  11.1744  17.1406
    22.8926  22.8926  24.8583  24.8583  24.8583  31.7580  31.7580  31.7580
    35.3854  35.4090  35.4090  35.4090  36.1469  36.1469  36.1469  39.2446
    41.4615  41.4615

     the Fermi energy is    12.6199 ev

!    total energy              =    -471.69200257 Ry
     total all-electron energy =    -17721.216731 Ry
     estimated scf accuracy    <       0.00001339 Ry
     smearing contrib. (-TS)   =      -0.00005626 Ry
     internal energy E=F+TS    =    -471.69194631 Ry

     The total energy is F=E-TS. E is the sum of the following terms:
     one-electron contribution =      -3.16247305 Ry
     hartree contribution      =       7.79901945 Ry
     xc contribution           =     -73.27609888 Ry
     ewald contribution        =     -57.27734028 Ry
     one-center paw contrib.   =    -345.77505354 Ry

     convergence has been achieved in   3 iterations

     Writing all to output data dir ./work/POSCAR.save/

     init_run     :      0.30s CPU      0.34s WALL (       1 calls)
     electrons    :      1.58s CPU      2.04s WALL (       1 calls)

     Called by init_run:
     wfcinit      :      0.09s CPU      0.09s WALL (       1 calls)
     potinit      :      0.14s CPU      0.17s WALL (       1 calls)
     hinit0       :      0.06s CPU      0.07s WALL (       1 calls)

     Called by electrons:
     c_bands      :      1.34s CPU      1.74s WALL (       4 calls)
     sum_band     :      0.15s CPU      0.15s WALL (       4 calls)
     v_of_rho     :      0.00s CPU      0.00s WALL (       4 calls)
     newd         :      0.01s CPU      0.01s WALL (       4 calls)
     PAW_pot      :      0.10s CPU      0.15s WALL (       4 calls)
     mix_rho      :      0.00s CPU      0.00s WALL (       4 calls)

     Called by c_bands:
     init_us_2    :      0.01s CPU      0.01s WALL (     504 calls)
     init_us_2:cp :      0.01s CPU      0.01s WALL (     504 calls)
     cegterg      :      1.30s CPU      1.36s WALL (     224 calls)

     Called by *egterg:
     cdiaghg      :      0.42s CPU      0.44s WALL (    1006 calls)
     h_psi        :      0.77s CPU      0.80s WALL (    1118 calls)
     s_psi        :      0.01s CPU      0.01s WALL (    1118 calls)
     g_psi        :      0.00s CPU      0.01s WALL (     838 calls)

     Called by h_psi:
     h_psi:calbec :      0.03s CPU      0.03s WALL (    1118 calls)
     vloc_psi     :      0.72s CPU      0.75s WALL (    1118 calls)
     add_vuspsi   :      0.01s CPU      0.01s WALL (    1118 calls)

     General routines
     calbec       :      0.04s CPU      0.04s WALL (    1342 calls)
     fft          :      0.04s CPU      0.04s WALL (      51 calls)
     ffts         :      0.12s CPU      0.13s WALL (       8 calls)
     fftw         :      0.77s CPU      0.80s WALL (   39974 calls)
     interpolate  :      0.12s CPU      0.13s WALL (       4 calls)

     Parallel routines

     PWSCF        :      2.01s CPU      3.11s WALL


   This run was terminated on:  22:39: 2  15May2024            

=------------------------------------------------------------------------------=
   JOB DONE.
=------------------------------------------------------------------------------=
