
     Program PWSCF v.7.1 starts on 15May2024 at 22:38:50 

     This program is part of the open-source Quantum ESPRESSO suite
     for quantum simulation of materials; please cite
         "P. Giannozzi et al., J. Phys.:Condens. Matter 21 395502 (2009);
         "P. Giannozzi et al., J. Phys.:Condens. Matter 29 465901 (2017);
         "P. Giannozzi et al., J. Chem. Phys. 152 154105 (2020);
          URL http://www.quantum-espresso.org", 
     in publications or presentations arising from this work. More details at
     http://www.quantum-espresso.org/quote

     Parallel version (MPI & OpenMP), running on      10 processor cores
     Number of MPI processes:                10
     Threads/MPI process:                     1

     MPI processes distributed on     1 nodes
     14558 MiB available memory on the printing compute node when the environment starts

     Waiting for input...
     Reading input from standard input

     Current dimensions of program PWSCF are:
     Max number of different atomic species (ntypx) = 10
     Max number of k-points (npk) =  40000
     Max angular momentum in pseudopotentials (lmaxx) =  4

     Atomic positions and unit cell read from directory:
     ./work/POSCAR.save/

     file Ce.pbe-spdn-kjpaw_psl.1.0.0.UPF: wavefunction(s)  5D renormalized
     Message from routine setup:
     using ibrav=0 with symmetry is DISCOURAGED, use correct ibrav instead

     R & G space division:  proc/nbgrp/npool/nimage =      10
     Subspace diagonalization in iterative solution of the eigenvalue problem:
     a serial algorithm will be used


     Parallelization info
     --------------------
     sticks:   dense  smooth     PW     G-vecs:    dense   smooth      PW
     Min          48      40     13                  820      604     117
     Max          50      42     14                  823      605     120
     Sum         489     405    137                 8217     6043    1189

     Using Slab Decomposition



     bravais-lattice index     =            0
     lattice parameter (alat)  =       5.8511  a.u.
     unit-cell volume          =     200.3148 (a.u.)^3
     number of atoms/cell      =            1
     number of atomic types    =            1
     number of electrons       =        11.00
     number of Kohn-Sham states=           26
     kinetic-energy cutoff     =      37.0000  Ry
     charge density cutoff     =     179.0000  Ry
     Exchange-correlation= SLA  PW   PBX  PBC
                           (   1   4   3   4   0   0   0)

     celldm(1)=   5.851102  celldm(2)=   0.000000  celldm(3)=   0.000000
     celldm(4)=   0.000000  celldm(5)=   0.000000  celldm(6)=   0.000000

     crystal axes: (cart. coord. in units of alat)
               a(1) = (   1.000000   0.000000   0.000000 )  
               a(2) = (   0.000000   1.000000   0.000000 )  
               a(3) = (   0.000000   0.000000   1.000000 )  

     reciprocal axes: (cart. coord. in units 2 pi/alat)
               b(1) = (  1.000000  0.000000  0.000000 )  
               b(2) = (  0.000000  1.000000  0.000000 )  
               b(3) = (  0.000000  0.000000  1.000000 )  


     PseudoPot. # 1 for Ce read from file:
     ./../../../../pseudo/psl100_PBE/Ce.pbe-spdn-kjpaw_psl.1.0.0.UPF
     MD5 check sum: 1a25380276e46fcecd5a173acdad072c
     Pseudo is Projector augmented-wave + core cor, Zval = 11.0
     Generated using 'atomic' code by A. Dal Corso  v.7.2
     Shape of augmentation charge: PSQ
     Using radial grid of 1255 points,  6 beta functions with: 
                l(1) =   0
                l(2) =   0
                l(3) =   1
                l(4) =   1
                l(5) =   2
                l(6) =   2
     Q(r) pseudized with 0 coefficients 


     atomic species   valence    mass     pseudopotential
        Ce            11.00   140.11600     Ce( 1.00)

     48 Sym. Ops., with inversion, found



   Cartesian axes

     site n.     atom                  positions (alat units)
         1           Ce  tau(   1) = (   0.0000000   0.0000000   0.0000000  )

     number of k points=    91  Methfessel-Paxton smearing, width (Ry)=  0.0200
                       cart. coord. in units 2pi/alat
        k(    1) = (   0.0000000   0.5000000   0.5000000), wk =   0.0219780
        k(    2) = (   0.0500000   0.5000000   0.5000000), wk =   0.0219780
        k(    3) = (   0.1000000   0.5000000   0.5000000), wk =   0.0219780
        k(    4) = (   0.1500000   0.5000000   0.5000000), wk =   0.0219780
        k(    5) = (   0.2000000   0.5000000   0.5000000), wk =   0.0219780
        k(    6) = (   0.2500000   0.5000000   0.5000000), wk =   0.0219780
        k(    7) = (   0.3000000   0.5000000   0.5000000), wk =   0.0219780
        k(    8) = (   0.3500000   0.5000000   0.5000000), wk =   0.0219780
        k(    9) = (   0.4000000   0.5000000   0.5000000), wk =   0.0219780
        k(   10) = (   0.4500000   0.5000000   0.5000000), wk =   0.0219780
        k(   11) = (   0.5000000   0.5000000   0.5000000), wk =   0.0219780
        k(   12) = (   0.4750000   0.4750000   0.4750000), wk =   0.0219780
        k(   13) = (   0.4500000   0.4500000   0.4500000), wk =   0.0219780
        k(   14) = (   0.4250000   0.4250000   0.4250000), wk =   0.0219780
        k(   15) = (   0.4000000   0.4000000   0.4000000), wk =   0.0219780
        k(   16) = (   0.3750000   0.3750000   0.3750000), wk =   0.0219780
        k(   17) = (   0.3500000   0.3500000   0.3500000), wk =   0.0219780
        k(   18) = (   0.3250000   0.3250000   0.3250000), wk =   0.0219780
        k(   19) = (   0.3000000   0.3000000   0.3000000), wk =   0.0219780
        k(   20) = (   0.2750000   0.2750000   0.2750000), wk =   0.0219780
        k(   21) = (   0.2500000   0.2500000   0.2500000), wk =   0.0219780
        k(   22) = (   0.2250000   0.2250000   0.2250000), wk =   0.0219780
        k(   23) = (   0.2000000   0.2000000   0.2000000), wk =   0.0219780
        k(   24) = (   0.1750000   0.1750000   0.1750000), wk =   0.0219780
        k(   25) = (   0.1500000   0.1500000   0.1500000), wk =   0.0219780
        k(   26) = (   0.1250000   0.1250000   0.1250000), wk =   0.0219780
        k(   27) = (   0.1000000   0.1000000   0.1000000), wk =   0.0219780
        k(   28) = (   0.0750000   0.0750000   0.0750000), wk =   0.0219780
        k(   29) = (   0.0500000   0.0500000   0.0500000), wk =   0.0219780
        k(   30) = (   0.0250000   0.0250000   0.0250000), wk =   0.0219780
        k(   31) = (   0.0000000   0.0000000   0.0000000), wk =   0.0219780
        k(   32) = (   0.0500000   0.0000000   0.0000000), wk =   0.0219780
        k(   33) = (   0.1000000   0.0000000   0.0000000), wk =   0.0219780
        k(   34) = (   0.1500000   0.0000000   0.0000000), wk =   0.0219780
        k(   35) = (   0.2000000   0.0000000   0.0000000), wk =   0.0219780
        k(   36) = (   0.2500000   0.0000000   0.0000000), wk =   0.0219780
        k(   37) = (   0.3000000   0.0000000   0.0000000), wk =   0.0219780
        k(   38) = (   0.3500000   0.0000000   0.0000000), wk =   0.0219780
        k(   39) = (   0.4000000   0.0000000   0.0000000), wk =   0.0219780
        k(   40) = (   0.4500000   0.0000000   0.0000000), wk =   0.0219780
        k(   41) = (   0.5000000   0.0000000   0.0000000), wk =   0.0219780
        k(   42) = (   0.5000000   0.0500000   0.0000000), wk =   0.0219780
        k(   43) = (   0.5000000   0.1000000   0.0000000), wk =   0.0219780
        k(   44) = (   0.5000000   0.1500000   0.0000000), wk =   0.0219780
        k(   45) = (   0.5000000   0.2000000   0.0000000), wk =   0.0219780
        k(   46) = (   0.5000000   0.2500000   0.0000000), wk =   0.0219780
        k(   47) = (   0.5000000   0.3000000   0.0000000), wk =   0.0219780
        k(   48) = (   0.5000000   0.3500000   0.0000000), wk =   0.0219780
        k(   49) = (   0.5000000   0.4000000   0.0000000), wk =   0.0219780
        k(   50) = (   0.5000000   0.4500000   0.0000000), wk =   0.0219780
        k(   51) = (   0.5000000   0.5000000   0.0000000), wk =   0.0219780
        k(   52) = (   0.4750000   0.4750000   0.0000000), wk =   0.0219780
        k(   53) = (   0.4500000   0.4500000   0.0000000), wk =   0.0219780
        k(   54) = (   0.4250000   0.4250000   0.0000000), wk =   0.0219780
        k(   55) = (   0.4000000   0.4000000   0.0000000), wk =   0.0219780
        k(   56) = (   0.3750000   0.3750000   0.0000000), wk =   0.0219780
        k(   57) = (   0.3500000   0.3500000   0.0000000), wk =   0.0219780
        k(   58) = (   0.3250000   0.3250000   0.0000000), wk =   0.0219780
        k(   59) = (   0.3000000   0.3000000   0.0000000), wk =   0.0219780
        k(   60) = (   0.2750000   0.2750000   0.0000000), wk =   0.0219780
        k(   61) = (   0.2500000   0.2500000   0.0000000), wk =   0.0219780
        k(   62) = (   0.2250000   0.2250000   0.0000000), wk =   0.0219780
        k(   63) = (   0.2000000   0.2000000   0.0000000), wk =   0.0219780
        k(   64) = (   0.1750000   0.1750000   0.0000000), wk =   0.0219780
        k(   65) = (   0.1500000   0.1500000   0.0000000), wk =   0.0219780
        k(   66) = (   0.1250000   0.1250000   0.0000000), wk =   0.0219780
        k(   67) = (   0.1000000   0.1000000   0.0000000), wk =   0.0219780
        k(   68) = (   0.0750000   0.0750000   0.0000000), wk =   0.0219780
        k(   69) = (   0.0500000   0.0500000   0.0000000), wk =   0.0219780
        k(   70) = (   0.0250000   0.0250000   0.0000000), wk =   0.0219780
        k(   71) = (   0.0000000   0.0000000   0.0000000), wk =   0.0219780
        k(   72) = (   0.0250000   0.0250000   0.0250000), wk =   0.0219780
        k(   73) = (   0.0500000   0.0500000   0.0500000), wk =   0.0219780
        k(   74) = (   0.0750000   0.0750000   0.0750000), wk =   0.0219780
        k(   75) = (   0.1000000   0.1000000   0.1000000), wk =   0.0219780
        k(   76) = (   0.1250000   0.1250000   0.1250000), wk =   0.0219780
        k(   77) = (   0.1500000   0.1500000   0.1500000), wk =   0.0219780
        k(   78) = (   0.1750000   0.1750000   0.1750000), wk =   0.0219780
        k(   79) = (   0.2000000   0.2000000   0.2000000), wk =   0.0219780
        k(   80) = (   0.2250000   0.2250000   0.2250000), wk =   0.0219780
        k(   81) = (   0.2500000   0.2500000   0.2500000), wk =   0.0219780
        k(   82) = (   0.2750000   0.2750000   0.2750000), wk =   0.0219780
        k(   83) = (   0.3000000   0.3000000   0.3000000), wk =   0.0219780
        k(   84) = (   0.3250000   0.3250000   0.3250000), wk =   0.0219780
        k(   85) = (   0.3500000   0.3500000   0.3500000), wk =   0.0219780
        k(   86) = (   0.3750000   0.3750000   0.3750000), wk =   0.0219780
        k(   87) = (   0.4000000   0.4000000   0.4000000), wk =   0.0219780
        k(   88) = (   0.4250000   0.4250000   0.4250000), wk =   0.0219780
        k(   89) = (   0.4500000   0.4500000   0.4500000), wk =   0.0219780
        k(   90) = (   0.4750000   0.4750000   0.4750000), wk =   0.0219780
        k(   91) = (   0.5000000   0.5000000   0.5000000), wk =   0.0219780

     Dense  grid:     8217 G-vectors     FFT dimensions: (  25,  25,  25)

     Smooth grid:     6043 G-vectors     FFT dimensions: (  24,  24,  24)

     Estimated max dynamical RAM per process >       3.72 MB

     Estimated total dynamical RAM >      37.15 MB

     The potential is recalculated from file :
     ./work/POSCAR.save/charge-density

     Starting wfcs are   13 randomized atomic wfcs +   13 random wfcs
     Checking if some PAW data can be deallocated... 

     Band Structure Calculation
     Davidson diagonalization with overlap

     ethr =  6.64E-07,  avg # of iterations = 16.6

     total cpu time spent up to now is        3.2 secs

     End of band structure calculation

          k = 0.0000 0.5000 0.5000 (   768 PWs)   bands (ev):

   -20.6266  -5.0077  -5.0077  -2.1270  10.4292  14.3443  17.8191  17.8191
    20.1589  20.1589  24.4378  26.5552  27.0690  27.7973  27.7973  31.0732
    35.0125  36.8016  36.8016  41.7201  41.7897  42.1758  43.9146  43.9146
    48.6335  48.8743

          k = 0.0500 0.5000 0.5000 (   768 PWs)   bands (ev):

   -20.6182  -4.9983  -4.9983  -2.2000  10.4575  14.5120  17.3362  17.3362
    20.7019  20.7019  24.4477  25.4737  27.8475  27.8475  28.1764  31.0775
    35.0843  36.8217  36.8217  41.6473  41.7514  42.0222  43.5819  43.5819
    48.3774  49.2750

          k = 0.1000 0.5000 0.5000 (   752 PWs)   bands (ev):

   -20.5934  -4.9708  -4.9708  -2.4066  10.5416  15.0027  16.4380  16.4380
    21.7721  21.7721  24.2232  24.4767  28.0047  28.0047  29.4884  31.0857
    35.3141  36.8810  36.8810  41.2655  41.5928  41.8446  42.8037  42.8037
    47.7542  49.4267

          k = 0.1500 0.5000 0.5000 (   760 PWs)   bands (ev):

   -20.5546  -4.9276  -4.9276  -2.7152  10.6785  15.5113  15.5113  15.7838
    22.9548  22.9548  23.0330  24.5223  28.2910  28.2910  30.7248  31.0818
    35.7468  36.9761  36.9761  40.7390  40.9592  41.8732  41.8732  41.9973
    46.9890  47.2531

          k = 0.2000 0.5000 0.5000 (   752 PWs)   bands (ev):

   -20.5049  -4.8723  -4.8723  -3.0836  10.8632  14.6496  14.6496  16.8123
    21.9235  24.1021  24.1021  24.5809  28.7504  28.7504  31.0340  31.7873
    36.4485  37.1015  37.1015  40.1598  40.1991  40.9367  40.9367  42.2048
    45.1710  46.2260

          k = 0.2500 0.5000 0.5000 (   756 PWs)   bands (ev):

   -20.4489  -4.8099  -4.8099  -3.4699  11.0869  13.8861  13.8861  18.0427
    20.9102  24.6474  25.1020  25.1020  29.4423  29.4423  30.8863  32.6049
    37.2489  37.2489  37.4496  39.3828  39.5930  40.0610  40.0610  42.4592
    43.2856  45.5551

          k = 0.3000 0.5000 0.5000 (   744 PWs)   bands (ev):

   -20.3919  -4.7461  -4.7461  -3.8364  11.3361  13.2391  13.2391  19.4306
    20.0110  24.7158  25.8751  25.8751  30.3953  30.3953  30.5528  33.1864
    37.4061  37.4061  38.5931  38.6687  39.0828  39.2851  39.2851  41.6787
    42.7472  45.0700

          k = 0.3500 0.5000 0.5000 (   752 PWs)   bands (ev):

   -20.3396  -4.6876  -4.6876  -4.1527  11.5895  12.7218  12.7218  19.2497
    20.9311  24.7789  26.4157  26.4157  29.9340  31.5426  31.5426  33.5901
    37.5524  37.5524  37.9451  38.6419  38.6419  38.6589  39.8959  40.3936
    43.0469  44.9252

          k = 0.4000 0.5000 0.5000 (   748 PWs)   bands (ev):

   -20.2974  -4.6403  -4.6403  -4.3952  11.8168  12.3446  12.3446  18.6587
    22.4885  24.8302  26.7670  26.7670  28.9856  32.7224  32.7224  33.8625
    37.5493  37.6304  37.6304  38.1946  38.1946  38.3422  39.4266  40.8181
    43.3232  45.3045

          k = 0.4500 0.5000 0.5000 (   720 PWs)   bands (ev):

   -20.2699  -4.6095  -4.6095  -4.5471  11.9787  12.1151  12.1151  18.2782
    23.9900  24.8637  26.9665  26.9665  27.8153  33.6842  33.6842  34.0234
    37.4175  37.5186  37.5186  38.0678  38.0678  38.1472  38.7754  41.2548
    43.5261  44.0754

          k = 0.5000 0.5000 0.5000 (   720 PWs)   bands (ev):

   -20.2604  -4.5989  -4.5989  -4.5989  12.0380  12.0380  12.0380  18.1459
    24.8753  24.8753  27.0315  27.0315  27.0315  34.0771  34.0771  34.0771
    37.4165  37.4165  37.4165  38.0811  38.0811  38.0811  38.5239  41.3606
    43.6021  43.6021

          k = 0.4750 0.4750 0.4750 (   720 PWs)   bands (ev):

   -20.2676  -4.5924  -4.5906  -4.5906  12.0361  12.0742  12.0742  18.2457
    24.4821  24.4821  26.8547  27.4238  27.4238  33.8285  33.8938  33.8938
    37.3132  37.3132  37.6560  37.8959  38.2225  38.2225  38.7365  41.2941
    43.8147  43.8147

          k = 0.4500 0.4500 0.4500 (   741 PWs)   bands (ev):

   -20.2890  -4.5731  -4.5660  -4.5660  12.0353  12.1826  12.1826  18.5393
    23.6848  23.6848  26.3515  28.2124  28.2124  33.2830  33.4513  33.4513
    36.8690  36.8690  37.4150  38.0782  38.7440  38.7440  39.4176  41.1500
    44.3695  44.3695

          k = 0.4250 0.4250 0.4250 (   744 PWs)   bands (ev):

   -20.3239  -4.5404  -4.5251  -4.5251  12.0478  12.3623  12.3623  19.0110
    22.7852  22.7852  25.5909  29.0704  29.0704  32.6717  32.9281  32.9281
    36.1919  36.1919  36.7716  38.4750  39.5002  39.5002  40.2322  41.2386
    44.9231  44.9231

          k = 0.4000 0.4000 0.4000 (   762 PWs)   bands (ev):

   -20.3715  -4.4942  -4.4680  -4.4680  12.0880  12.6116  12.6116  19.6404
    21.8626  21.8626  24.6560  29.8340  29.8340  32.0753  32.4895  32.4895
    35.4231  35.4231  36.0607  38.8574  40.3307  40.3307  40.3697  42.2540
    44.6573  44.6573

          k = 0.3750 0.3750 0.3750 (   753 PWs)   bands (ev):

   -20.4304  -4.4341  -4.3949  -4.3949  12.1679  12.9282  12.9282  20.4058
    20.9439  20.9439  23.6221  30.2376  30.2376  31.5131  32.3841  32.3841
    34.6678  34.6678  35.3351  39.1571  40.3776  41.0931  41.0931  43.6634
    44.3800  44.3800

          k = 0.3500 0.3500 0.3500 (   753 PWs)   bands (ev):

   -20.4992  -4.3597  -4.3063  -4.3063  12.2940  13.3084  13.3084  20.0422
    20.0422  21.2847  22.5500  30.0967  30.0967  30.9902  32.6215  32.6215
    34.1496  34.1496  34.6224  39.2537  40.6344  41.5935  41.5935  44.4988
    44.4988  45.1540

          k = 0.3250 0.3250 0.3250 (   756 PWs)   bands (ev):

   -20.5761  -4.2707  -4.2029  -4.2029  12.4660  13.7462  13.7462  19.1685
    19.1685  21.4739  22.2676  29.6776  29.6776  30.5152  32.4034  32.4034
    33.9380  34.4309  34.4309  39.2023  41.1097  41.7439  41.7439  45.0620
    45.0620  46.5958

          k = 0.3000 0.3000 0.3000 (   750 PWs)   bands (ev):

   -20.6590  -4.1669  -4.0859  -4.0859  12.6743  14.2311  14.2311  18.3362
    18.3362  20.4596  23.3018  29.1874  29.1874  30.1054  31.7763  31.7763
    33.2909  35.2768  35.2768  39.1182  41.6682  41.7028  41.7028  45.7458
    45.7458  47.5011

          k = 0.2750 0.2750 0.2750 (   756 PWs)   bands (ev):

   -20.7458  -4.0487  -3.9567  -3.9567  12.8959  14.7374  14.7374  17.5722
    17.5722  19.5345  24.3590  28.6938  28.6938  29.7977  31.0984  31.0984
    32.6866  36.2707  36.2707  39.0427  41.6202  41.6202  42.1951  45.8455
    45.8455  46.7214

          k = 0.2500 0.2500 0.2500 (   751 PWs)   bands (ev):

   -20.8345  -3.9169  -3.8171  -3.8171  13.0880  15.1787  15.1787  16.9636
    16.9636  18.7584  25.3490  28.2199  28.2199  29.6722  30.4558  30.4558
    32.1289  37.2996  37.2996  38.9706  41.5493  41.5493  42.4567  44.9342
    44.9342  45.5815

          k = 0.2250 0.2250 0.2250 (   757 PWs)   bands (ev):

   -20.9227  -3.7731  -3.6699  -3.6699  13.1839  15.2559  15.2559  16.8083
    16.8083  18.2074  26.1111  27.7745  27.7745  29.8771  29.8771  29.8819
    31.6199  38.2859  38.2859  38.8445  41.4720  41.4720  42.0115  43.7259
    43.7259  45.2247

          k = 0.2000 0.2000 0.2000 (   754 PWs)   bands (ev):

   -21.0083  -3.6197  -3.5182  -3.5182  13.1114  14.8467  14.8467  17.2262
    17.2262  17.9593  26.4941  27.3614  27.3614  29.3791  29.3791  30.5688
    31.1617  38.4929  39.0073  39.0073  41.1600  41.3184  41.3184  42.8658
    42.8658  45.6107

          k = 0.1750 0.1750 0.1750 (   754 PWs)   bands (ev):

   -21.0893  -3.4605  -3.3660  -3.3660  12.8493  14.2996  14.2996  17.8632
    17.8632  18.0374  26.5549  26.9823  26.9823  28.9758  28.9758  30.7554
    31.6618  37.6659  38.8028  38.8028  40.6589  41.4569  41.4569  42.7412
    42.7412  46.2474

          k = 0.1500 0.1500 0.1500 (   766 PWs)   bands (ev):

   -21.1637  -3.3004  -3.2178  -3.2178  12.4529  13.7626  13.7626  18.3848
    18.5618  18.5618  26.4531  26.6383  26.6383  28.6807  28.6807  30.4017
    32.9775  36.4673  37.7293  37.7293  40.6071  41.9957  41.9957  43.2183
    43.2183  46.9252

          k = 0.1250 0.1250 0.1250 (   772 PWs)   bands (ev):

   -21.2298  -3.1455  -3.0788  -3.0788  12.0052  13.2773  13.2773  18.9124
    19.2653  19.2653  26.2875  26.3318  26.3318  28.5085  28.5085  30.1017
    34.3346  35.2238  36.4297  36.4297  40.8124  42.4719  42.4719  44.1264
    44.1264  47.5124

          k = 0.1000 0.1000 0.1000 (   766 PWs)   bands (ev):

   -21.2860  -3.0028  -2.9544  -2.9544  11.5728  12.8616  12.8616  19.5389
    19.9327  19.9327  26.0664  26.0664  26.1015  28.4745  28.4745  29.8557
    33.8663  35.1214  35.1214  35.8487  41.2036  42.9179  42.9179  45.2007
    45.2007  47.7954

          k = 0.0750 0.0750 0.0750 (   757 PWs)   bands (ev):

   -21.3311  -2.8803  -2.8502  -2.8502  11.2000  12.5270  12.5270  20.1910
    20.5215  20.5215  25.8475  25.8475  25.9135  28.5914  28.5914  29.6640
    32.7819  33.8820  33.8820  37.0945  41.8105  43.3977  43.3977  46.1716
    46.1716  47.6088

          k = 0.0500 0.0500 0.0500 (   748 PWs)   bands (ev):

   -21.3641  -2.7858  -2.7714  -2.7714  10.9156  12.2818  12.2818  20.7872
    20.9861  20.9861  25.6821  25.6821  25.7369  28.8569  28.8569  29.5269
    31.9079  32.7718  32.7718  38.0597  42.7028  43.9250  43.9251  46.4245
    46.4245  47.1176

          k = 0.0250 0.0250 0.0250 (   748 PWs)   bands (ev):

   -21.3842  -2.7260  -2.7223  -2.7223  10.7380  12.1322  12.1322  21.2238
    21.2847  21.2847  25.5781  25.5781  25.5980  29.2112  29.2112  29.4446
    31.3355  31.8930  31.8930  38.6336  43.8663  44.4825  44.4825  45.9556
    45.9556  46.3769

          k = 0.0000 0.0000 0.0000 (   751 PWs)   bands (ev):

   -21.3909  -2.7056  -2.7056  -2.7056  10.6776  12.0818  12.0818  21.3878
    21.3878  21.3878  25.5425  25.5425  25.5425  29.4171  29.4171  29.4171
    31.1352  31.5092  31.5092  38.8183  44.8660  44.8660  44.8660  45.5597
    45.5597  45.5597

          k = 0.0500 0.0000 0.0000 (   747 PWs)   bands (ev):

   -21.3820  -2.7906  -2.6986  -2.6986  10.7550  12.1023  12.1975  21.1470
    21.1470  21.4005  25.2514  25.7665  25.7665  28.7574  29.5519  29.5519
    31.3090  31.7443  32.2559  38.5882  43.8473  43.8473  45.0490  45.1877
    46.5953  46.5953

          k = 0.1000 0.0000 0.0000 (   751 PWs)   bands (ev):

   -21.3559  -3.0297  -2.6781  -2.6781  10.9525  12.1625  12.5579  20.5669
    20.5669  21.4377  24.5564  26.2756  26.2756  27.6496  29.9741  29.9741
    31.4505  32.6494  33.6253  38.0138  42.6094  42.6094  43.9140  46.0373
    46.5000  47.8350

          k = 0.1500 0.0000 0.0000 (   759 PWs)   bands (ev):

   -21.3148  -3.3826  -2.6460  -2.6460  11.2077  12.2591  13.1673  19.8598
    19.8598  21.4966  23.7320  26.5431  26.8256  26.8256  30.7078  30.7078
    31.5801  33.9238  35.1696  37.2884  41.4473  41.4473  42.4369  44.5245
    47.2228  48.8337

          k = 0.2000 0.0000 0.0000 (   763 PWs)   bands (ev):

   -21.2622  -3.7987  -2.6050  -2.6050  11.4896  12.3864  13.9660  19.1480
    19.1480  21.5729  22.9606  25.5152  27.3046  27.3046  31.7211  31.7246
    31.7246  35.3368  36.5400  36.8152  40.4005  40.4005  40.6131  43.0384
    48.6183  49.4376

          k = 0.2500 0.0000 0.0000 (   767 PWs)   bands (ev):

   -21.2029  -4.2295  -2.5592  -2.5592  11.7953  12.5355  14.8282  18.4921
    18.4921  21.6600  22.3869  24.5933  27.7070  27.7070  31.8286  32.9294
    32.9294  35.8373  36.6636  38.5390  38.6796  39.5165  39.5165  42.0801
    49.7079  49.7079

          k = 0.3000 0.0000 0.0000 (   759 PWs)   bands (ev):

   -21.1424  -4.6342  -2.5126  -2.5126  12.1234  12.6945  15.5716  17.9250
    17.9250  21.7502  22.1815  23.7970  28.0533  28.0533  31.7684  34.1679
    34.1679  35.2206  36.5876  37.9074  38.8963  38.8963  40.3268  41.8362
    49.6676  49.6676

          k = 0.3500 0.0000 0.0000 (   780 PWs)   bands (ev):

   -21.0868  -4.9809  -2.4701  -2.4701  12.4616  12.8477  16.0093  17.4666
    17.4666  21.8344  22.5197  23.1456  28.3512  28.3512  31.2269  34.7153
    35.1568  35.1568  35.4042  37.9644  38.7841  38.7841  42.1636  42.6663
    48.9435  48.9435

          k = 0.4000 0.0000 0.0000 (   772 PWs)   bands (ev):

   -21.0419  -5.2451  -2.4360  -2.4360  12.7800  12.9770  16.1091  17.1306
    17.1306  21.9032  22.6592  23.4295  28.5909  28.5909  29.9842  34.3409
    34.9460  35.5702  35.5702  37.5791  39.4672  39.4672  44.0272  44.2492
    47.3872  47.3872

          k = 0.4500 0.0000 0.0000 (   776 PWs)   bands (ev):

   -21.0128  -5.4103  -2.4139  -2.4139  13.0235  13.0642  16.0361  16.9255
    16.9255  21.9485  22.3575  24.7331  28.3777  28.7502  28.7502  34.1105
    34.9501  35.5896  35.5896  37.1592  40.6428  40.6428  45.7419  45.7419
    45.8699  46.1494

          k = 0.5000 0.0000 0.0000 (   756 PWs)   bands (ev):

   -21.0026  -5.4664  -2.4062  -2.4062  13.0951  13.1180  15.9842  16.8567
    16.8567  21.9643  22.2551  25.8030  27.1958  28.8066  28.8066  34.0329
    35.0103  35.5606  35.5606  36.9758  41.3710  41.3710  44.8756  44.8756
    47.2781  48.0266

          k = 0.5000 0.0500 0.0000 (   772 PWs)   bands (ev):

   -20.9940  -5.4560  -2.4844  -2.3997  13.1283  13.2757  15.4598  16.8762
    17.2802  21.7765  22.4616  25.7390  27.2202  28.6520  29.0927  33.3342
    34.7364  35.3353  36.3120  37.8648  41.1892  41.3838  44.3746  44.9218
    47.4637  47.4779

          k = 0.5000 0.1000 0.0000 (   774 PWs)   bands (ev):

   -20.9687  -5.4255  -2.7052  -2.3805  13.1986  13.7622  14.6224  16.9338
    17.8390  21.2947  23.0518  25.5279  27.2923  28.3158  29.8701  32.2501
    33.5483  36.2009  37.5488  39.2161  40.7131  41.4218  43.4783  45.0635
    45.7355  47.6100

          k = 0.5000 0.1500 0.0000 (   766 PWs)   bands (ev):

   -20.9288  -5.3773  -3.0332  -2.3504  13.3113  13.7674  14.5284  17.0263
    18.3047  20.6687  23.9372  25.1437  27.4092  28.0130  30.9898  31.1859
    32.4363  37.4109  38.8476  40.0800  40.3585  41.4822  42.8600  43.6138
    45.3110  47.7228

          k = 0.5000 0.2000 0.0000 (   762 PWs)   bands (ev):

   -20.8778  -5.3155  -3.4229  -2.3122  12.9589  13.4613  15.5172  17.1479
    18.6966  20.0124  24.6200  24.9824  27.5587  27.8449  30.1992  31.5011
    32.3385  38.7333  39.4688  40.1151  40.4348  41.4178  41.5601  43.4304
    45.6819  47.8112

          k = 0.5000 0.2500 0.0000 (   770 PWs)   bands (ev):

   -20.8203  -5.2456  -3.8293  -2.2693  12.2308  13.6396  16.6586  17.2900
    19.0479  19.3935  24.0585  26.0092  27.6887  27.7957  29.3140  30.9067
    33.8495  38.6245  38.9506  39.7692  40.7288  41.2746  41.6488  44.8649
    46.1956  47.7381

          k = 0.5000 0.3000 0.0000 (   762 PWs)   bands (ev):

   -20.7617  -5.1740  -4.2132  -2.2259  11.6060  13.8334  17.4410  17.8587
    18.8513  19.3745  23.5855  26.8102  27.6424  27.8150  28.5492  30.9632
    35.4830  36.8441  38.0319  39.0249  41.7406  42.2506  42.3523  46.4326
    46.8472  46.9834

          k = 0.5000 0.3500 0.0000 (   766 PWs)   bands (ev):

   -20.7079  -5.1081  -4.5433  -2.1863  11.1018  14.0245  17.5861  18.4099
    18.9627  19.6734  23.3559  27.3008  27.3420  27.8569  27.9235  31.7851
    34.7960  37.2102  37.5194  38.3421  41.8262  42.9967  44.1438  45.3510
    47.5555  47.7795

          k = 0.5000 0.4000 0.0000 (   766 PWs)   bands (ev):

   -20.6646  -5.0546  -4.7958  -2.1546  10.7316  14.1897  17.7081  18.0848
    19.7390  19.9246  23.5500  26.9504  27.4567  27.5933  27.8790  32.9752
    33.0346  37.1291  37.7359  39.0012  41.8979  43.5120  43.6183  45.9851
    46.9202  48.1579

          k = 0.5000 0.4500 0.0000 (   772 PWs)   bands (ev):

   -20.6364  -5.0198  -4.9539  -2.1341  10.5054  14.3035  17.7901  17.8860
    20.0819  20.0969  24.1030  26.6610  27.1672  27.7475  27.8444  31.6080
    34.3176  36.8848  37.1694  40.7790  41.9576  42.2593  43.8145  45.1362
    47.7658  48.5206

          k = 0.5000 0.5000 0.0000 (   768 PWs)   bands (ev):

   -20.6266  -5.0077  -5.0077  -2.1270  10.4292  14.3443  17.8191  17.8191
    20.1589  20.1589  24.4378  26.5552  27.0690  27.7973  27.7973  31.0732
    35.0125  36.8016  36.8016  41.7201  41.7897  42.1758  43.9146  43.9146
    48.6335  48.8743

          k = 0.4750 0.4750 0.0000 (   768 PWs)   bands (ev):

   -20.6315  -4.9981  -4.9964  -2.1306  10.4673  14.3236  17.8235  17.8336
    20.1218  20.1303  24.2575  26.6076  27.1183  27.5696  28.0408  31.3334
    34.6623  36.5819  37.2482  41.4574  41.6769  41.9914  44.2506  44.3552
    48.3968  48.5823

          k = 0.4500 0.4500 0.0000 (   764 PWs)   bands (ev):

   -20.6462  -4.9692  -4.9626  -2.1412  10.5809  14.2625  17.8374  17.8769
    20.0106  20.0352  23.8465  26.7186  27.0843  27.2650  28.6500  31.9534
    34.0440  36.0330  38.1632  40.7402  40.7606  42.6930  44.9568  45.0902
    47.5069  47.9422

          k = 0.4250 0.4250 0.0000 (   762 PWs)   bands (ev):

   -20.6701  -4.9210  -4.9068  -2.1587  10.7675  14.1641  17.8629  17.9489
    19.8244  19.8476  23.4027  26.3381  27.0868  27.5060  29.4505  32.6621
    33.5238  35.3318  39.2516  39.7061  39.9579  43.6355  45.6849  45.7670
    46.5393  47.0429

          k = 0.4000 0.4000 0.0000 (   758 PWs)   bands (ev):

   -20.7026  -4.8536  -4.8296  -2.1824  11.0230  14.0334  17.9030  18.0491
    19.5369  19.5604  23.0493  25.7484  27.3777  27.8363  30.3422  32.7277
    33.8147  34.5927  38.6462  39.1243  40.4416  44.5919  45.6699  45.9365
    46.0379  46.5905

          k = 0.3750 0.3750 0.0000 (   760 PWs)   bands (ev):

   -20.7429  -4.7672  -4.7320  -2.2120  11.3403  13.8773  17.9613  18.1770
    19.0925  19.2163  22.8388  25.2327  27.6858  28.2493  31.2563  32.4125
    33.8940  34.6587  37.5858  38.2834  41.6986  44.3011  45.0041  45.8391
    46.1112  47.3635

          k = 0.3500 0.3500 0.0000 (   754 PWs)   bands (ev):

   -20.7899  -4.6619  -4.6152  -2.2467  11.7073  13.7060  18.0416  18.3316
    18.5369  18.7963  22.7697  24.8343  27.9371  28.7360  32.0172  32.2511
    33.4148  35.5463  36.5401  37.4456  42.9271  43.3367  44.0624  45.5497
    47.2283  47.9835

          k = 0.3250 0.3250 0.0000 (   748 PWs)   bands (ev):

   -20.8422  -4.5387  -4.4810  -2.2855  12.1002  13.5362  17.9096  18.1474
    18.3179  18.5120  22.8140  24.5667  28.0701  29.2835  32.0081  32.3283
    33.7680  35.5235  36.4079  36.6168  42.3481  42.8315  44.5160  45.1859
    47.7532  48.2123

          k = 0.3000 0.3000 0.0000 (   756 PWs)   bands (ev):

   -20.8986  -4.3986  -4.3314  -2.3276  12.4603  13.4107  17.2469  17.8174
    18.2818  18.7166  22.9427  24.4251  28.0651  29.8692  31.5035  32.6565
    34.5580  34.6652  35.8016  37.1757  41.3932  42.0159  44.8042  45.5642
    46.8192  48.1735

          k = 0.2750 0.2750 0.0000 (   764 PWs)   bands (ev):

   -20.9575  -4.2431  -4.1689  -2.3719  12.6416  13.4406  16.5755  17.3544
    18.4469  18.9437  23.1340  24.3942  27.9549  30.4388  30.9579  33.1895
    33.6963  35.0041  35.6124  37.7101  40.5251  41.4249  44.4324  44.8907
    47.5344  47.8209

          k = 0.2500 0.2500 0.0000 (   758 PWs)   bands (ev):

   -21.0174  -4.0746  -3.9963  -2.4172  12.5755  13.6237  15.9141  17.0234
    18.6446  19.1908  23.3724  24.4544  27.7925  30.4481  30.8188  33.1092
    33.8497  34.2292  36.4093  37.8069  39.8757  41.2655  43.6249  44.0858
    47.3833  48.1916

          k = 0.2250 0.2250 0.0000 (   766 PWs)   bands (ev):

   -21.0770  -3.8961  -3.8172  -2.4625  12.4029  13.7162  15.2764  16.9470
    18.8753  19.4548  23.6458  24.5845  27.6233  29.9938  30.6597  33.1425
    33.4812  34.5245  36.7181  37.5202  39.7695  41.1770  42.7358  43.7744
    46.9382  47.8429

          k = 0.2000 0.2000 0.0000 (   774 PWs)   bands (ev):

   -21.1347  -3.7114  -3.6357  -2.5066  12.1965  13.5959  14.6734  17.1889
    19.1384  19.7316  23.9434  24.7621  27.4834  29.6052  30.0412  32.7664
    33.7119  34.9587  36.3676  37.3120  40.1749  40.3732  43.0393  43.5069
    46.5181  47.5178

          k = 0.1750 0.1750 0.0000 (   766 PWs)   bands (ev):

   -21.1891  -3.5251  -3.4562  -2.5485  11.9735  13.3216  14.1144  17.6814
    19.4323  20.0161  24.2533  24.9613  27.4049  29.2857  29.2914  32.0916
    34.4880  34.7951  35.6918  37.6870  38.8260  41.3487  43.2927  43.8293
    46.1374  47.2386

          k = 0.1500 0.1500 0.0000 (   760 PWs)   bands (ev):

   -21.2390  -3.3429  -3.2839  -2.5870  11.7369  13.0002  13.6080  18.3165
    19.7531  20.3012  24.5615  25.1516  27.4205  28.5167  29.0622  31.4650
    34.2109  34.9257  35.3371  37.4441  38.5375  42.4496  43.1441  44.7160
    45.8029  47.0252

          k = 0.1250 0.1250 0.0000 (   760 PWs)   bands (ev):

   -21.2833  -3.1711  -3.1244  -2.6214  11.4891  12.7039  13.1622  19.0141
    20.0945  20.5780  24.8507  25.3044  27.5593  27.7772  28.9289  30.8969
    33.5066  34.1526  36.1112  36.2002  39.5722  43.0789  43.5624  45.5176
    45.5761  46.9154

          k = 0.1000 0.1000 0.0000 (   756 PWs)   bands (ev):

   -21.3209  -3.0167  -2.9833  -2.6507  11.2415  12.4650  12.7847  19.7153
    20.4453  20.8353  25.1026  25.4072  27.0922  27.8328  28.9013  30.3997
    32.8020  33.4089  34.8490  37.0278  40.6966  43.1256  44.5579  45.2834
    46.2505  47.0104

          k = 0.0750 0.0750 0.0000 (   752 PWs)   bands (ev):

   -21.3510  -2.8868  -2.8663  -2.6743  11.0152  12.2896  12.4824  20.3646
    20.7873  21.0596  25.3012  25.4693  26.4864  28.2257  28.9801  29.9879
    32.1572  32.7213  33.6868  37.7620  41.8636  43.3240  45.1009  45.2130
    46.5194  47.5196

          k = 0.0500 0.0500 0.0000 (   746 PWs)   bands (ev):

   -21.3730  -2.7882  -2.7785  -2.6915  10.8341  12.1716  12.2616  20.9015
    21.0898  21.2356  25.4388  25.5081  25.9937  28.7005  29.1436  29.6773
    31.6253  32.1244  32.6628  38.3366  43.0341  43.7168  44.9704  45.4723
    46.4115  47.2872

          k = 0.0250 0.0250 0.0000 (   746 PWs)   bands (ev):

   -21.3864  -2.7266  -2.7241  -2.7020  10.7177  12.1039  12.1271  21.2608
    21.3071  21.3487  25.5173  25.5331  25.6616  29.1754  29.3286  29.4833
    31.2656  31.6826  31.8587  38.6969  44.1419  44.3146  44.8921  45.5454
    46.0226  46.2612

          k = 0.0000 0.0000 0.0000 (   751 PWs)   bands (ev):

   -21.3909  -2.7056  -2.7056  -2.7056  10.6776  12.0818  12.0818  21.3878
    21.3878  21.3878  25.5425  25.5425  25.5425  29.4171  29.4171  29.4171
    31.1352  31.5092  31.5092  38.8183  44.8660  44.8660  44.8660  45.5597
    45.5597  45.5597

          k = 0.0250 0.0250 0.0250 (   748 PWs)   bands (ev):

   -21.3842  -2.7260  -2.7223  -2.7223  10.7380  12.1322  12.1322  21.2238
    21.2847  21.2847  25.5781  25.5781  25.5980  29.2112  29.2112  29.4446
    31.3355  31.8930  31.8930  38.6336  43.8663  44.4825  44.4825  45.9556
    45.9556  46.3769

          k = 0.0500 0.0500 0.0500 (   748 PWs)   bands (ev):

   -21.3641  -2.7858  -2.7714  -2.7714  10.9156  12.2818  12.2818  20.7872
    20.9861  20.9861  25.6821  25.6821  25.7369  28.8569  28.8569  29.5269
    31.9079  32.7718  32.7718  38.0597  42.7028  43.9250  43.9250  46.4245
    46.4245  47.1176

          k = 0.0750 0.0750 0.0750 (   757 PWs)   bands (ev):

   -21.3311  -2.8803  -2.8502  -2.8502  11.2000  12.5270  12.5270  20.1910
    20.5215  20.5215  25.8475  25.8475  25.9135  28.5914  28.5914  29.6640
    32.7819  33.8820  33.8820  37.0945  41.8105  43.3977  43.3977  46.1716
    46.1716  47.6088

          k = 0.1000 0.1000 0.1000 (   766 PWs)   bands (ev):

   -21.2860  -3.0028  -2.9544  -2.9544  11.5728  12.8616  12.8616  19.5389
    19.9327  19.9327  26.0664  26.0664  26.1015  28.4745  28.4745  29.8557
    33.8663  35.1214  35.1214  35.8487  41.2036  42.9179  42.9179  45.2007
    45.2007  47.7954

          k = 0.1250 0.1250 0.1250 (   772 PWs)   bands (ev):

   -21.2298  -3.1455  -3.0788  -3.0788  12.0052  13.2773  13.2773  18.9124
    19.2653  19.2653  26.2875  26.3318  26.3318  28.5085  28.5085  30.1017
    34.3346  35.2238  36.4297  36.4297  40.8124  42.4719  42.4719  44.1264
    44.1264  47.5124

          k = 0.1500 0.1500 0.1500 (   766 PWs)   bands (ev):

   -21.1637  -3.3004  -3.2178  -3.2178  12.4529  13.7626  13.7626  18.3848
    18.5618  18.5618  26.4531  26.6383  26.6383  28.6807  28.6807  30.4017
    32.9775  36.4673  37.7293  37.7293  40.6071  41.9957  41.9957  43.2183
    43.2183  46.9252

          k = 0.1750 0.1750 0.1750 (   754 PWs)   bands (ev):

   -21.0893  -3.4605  -3.3660  -3.3660  12.8493  14.2996  14.2996  17.8632
    17.8632  18.0374  26.5549  26.9823  26.9823  28.9758  28.9758  30.7554
    31.6618  37.6659  38.8028  38.8028  40.6589  41.4569  41.4569  42.7412
    42.7412  46.2474

          k = 0.2000 0.2000 0.2000 (   754 PWs)   bands (ev):

   -21.0083  -3.6197  -3.5182  -3.5182  13.1114  14.8467  14.8467  17.2262
    17.2262  17.9593  26.4941  27.3614  27.3614  29.3791  29.3791  30.5688
    31.1617  38.4929  39.0073  39.0073  41.1600  41.3184  41.3184  42.8658
    42.8658  45.6107

          k = 0.2250 0.2250 0.2250 (   757 PWs)   bands (ev):

   -20.9227  -3.7731  -3.6699  -3.6699  13.1839  15.2559  15.2559  16.8083
    16.8083  18.2074  26.1111  27.7745  27.7745  29.8771  29.8771  29.8819
    31.6199  38.2859  38.2859  38.8445  41.4720  41.4720  42.0115  43.7259
    43.7259  45.2247

          k = 0.2500 0.2500 0.2500 (   751 PWs)   bands (ev):

   -20.8345  -3.9169  -3.8171  -3.8171  13.0880  15.1787  15.1787  16.9636
    16.9636  18.7584  25.3490  28.2199  28.2199  29.6722  30.4558  30.4558
    32.1289  37.2996  37.2996  38.9706  41.5493  41.5493  42.4567  44.9342
    44.9342  45.5815

          k = 0.2750 0.2750 0.2750 (   756 PWs)   bands (ev):

   -20.7458  -4.0487  -3.9567  -3.9567  12.8959  14.7374  14.7374  17.5722
    17.5722  19.5345  24.3590  28.6938  28.6938  29.7977  31.0984  31.0984
    32.6866  36.2707  36.2707  39.0427  41.6202  41.6202  42.1951  45.8455
    45.8455  46.7214

          k = 0.3000 0.3000 0.3000 (   750 PWs)   bands (ev):

   -20.6590  -4.1669  -4.0859  -4.0859  12.6743  14.2311  14.2311  18.3362
    18.3362  20.4596  23.3018  29.1874  29.1874  30.1054  31.7763  31.7763
    33.2909  35.2768  35.2768  39.1182  41.6682  41.7028  41.7028  45.7458
    45.7458  47.5011

          k = 0.3250 0.3250 0.3250 (   756 PWs)   bands (ev):

   -20.5761  -4.2707  -4.2029  -4.2029  12.4660  13.7462  13.7462  19.1685
    19.1685  21.4739  22.2676  29.6776  29.6776  30.5152  32.4034  32.4034
    33.9380  34.4309  34.4309  39.2023  41.1097  41.7439  41.7439  45.0620
    45.0620  46.5958

          k = 0.3500 0.3500 0.3500 (   753 PWs)   bands (ev):

   -20.4992  -4.3597  -4.3063  -4.3063  12.2940  13.3084  13.3084  20.0422
    20.0422  21.2847  22.5500  30.0967  30.0967  30.9902  32.6215  32.6215
    34.1496  34.1496  34.6224  39.2537  40.6344  41.5935  41.5935  44.4988
    44.4988  45.1540

          k = 0.3750 0.3750 0.3750 (   753 PWs)   bands (ev):

   -20.4304  -4.4341  -4.3949  -4.3949  12.1679  12.9282  12.9282  20.4058
    20.9439  20.9439  23.6221  30.2376  30.2376  31.5131  32.3841  32.3841
    34.6678  34.6678  35.3351  39.1571  40.3776  41.0931  41.0931  43.6634
    44.3800  44.3800

          k = 0.4000 0.4000 0.4000 (   762 PWs)   bands (ev):

   -20.3715  -4.4942  -4.4680  -4.4680  12.0880  12.6116  12.6116  19.6404
    21.8626  21.8626  24.6560  29.8340  29.8340  32.0753  32.4895  32.4895
    35.4231  35.4231  36.0607  38.8574  40.3307  40.3307  40.3697  42.2540
    44.6573  44.6573

          k = 0.4250 0.4250 0.4250 (   744 PWs)   bands (ev):

   -20.3239  -4.5404  -4.5251  -4.5251  12.0478  12.3623  12.3623  19.0110
    22.7852  22.7852  25.5909  29.0704  29.0704  32.6717  32.9281  32.9281
    36.1919  36.1919  36.7716  38.4750  39.5002  39.5002  40.2322  41.2386
    44.9231  44.9231

          k = 0.4500 0.4500 0.4500 (   741 PWs)   bands (ev):

   -20.2890  -4.5731  -4.5660  -4.5660  12.0353  12.1826  12.1826  18.5393
    23.6848  23.6848  26.3515  28.2124  28.2124  33.2830  33.4513  33.4513
    36.8690  36.8690  37.4150  38.0782  38.7440  38.7440  39.4176  41.1500
    44.3695  44.3695

          k = 0.4750 0.4750 0.4750 (   720 PWs)   bands (ev):

   -20.2676  -4.5924  -4.5906  -4.5906  12.0361  12.0742  12.0742  18.2457
    24.4821  24.4821  26.8547  27.4238  27.4238  33.8285  33.8938  33.8938
    37.3132  37.3132  37.6560  37.8959  38.2225  38.2225  38.7365  41.2941
    43.8147  43.8147

          k = 0.5000 0.5000 0.5000 (   720 PWs)   bands (ev):

   -20.2604  -4.5989  -4.5989  -4.5989  12.0380  12.0380  12.0380  18.1459
    24.8753  24.8753  27.0315  27.0315  27.0315  34.0771  34.0771  34.0771
    37.4165  37.4165  37.4165  38.0811  38.0811  38.0811  38.5239  41.3606
    43.6021  43.6021

     Writing all to output data dir ./work/POSCAR.save/

     init_run     :      0.23s CPU      0.26s WALL (       1 calls)
     electrons    :      2.27s CPU      2.58s WALL (       1 calls)

     Called by init_run:
     wfcinit      :      0.00s CPU      0.01s WALL (       1 calls)
     potinit      :      0.16s CPU      0.18s WALL (       1 calls)
     hinit0       :      0.06s CPU      0.06s WALL (       1 calls)

     Called by electrons:
     c_bands      :      2.27s CPU      2.57s WALL (       1 calls)
     v_of_rho     :      0.00s CPU      0.00s WALL (       1 calls)
     newd         :      0.01s CPU      0.01s WALL (       1 calls)
     PAW_pot      :      0.03s CPU      0.04s WALL (       1 calls)

     Called by c_bands:
     init_us_2    :      0.00s CPU      0.00s WALL (      91 calls)
     init_us_2:cp :      0.00s CPU      0.00s WALL (      91 calls)
     cegterg      :      2.11s CPU      2.23s WALL (     104 calls)

     Called by *egterg:
     cdiaghg      :      0.81s CPU      0.85s WALL (    1598 calls)
     h_psi        :      1.10s CPU      1.18s WALL (    1702 calls)
     s_psi        :      0.01s CPU      0.01s WALL (    1702 calls)
     g_psi        :      0.01s CPU      0.01s WALL (    1507 calls)

     Called by h_psi:
     h_psi:calbec :      0.05s CPU      0.05s WALL (    1702 calls)
     vloc_psi     :      1.03s CPU      1.10s WALL (    1702 calls)
     add_vuspsi   :      0.01s CPU      0.02s WALL (    1702 calls)

     General routines
     calbec       :      0.05s CPU      0.05s WALL (    1702 calls)
     fft          :      0.04s CPU      0.04s WALL (      13 calls)
     ffts         :      0.12s CPU      0.13s WALL (       1 calls)
     fftw         :      0.94s CPU      1.00s WALL (   48834 calls)
     interpolate  :      0.12s CPU      0.13s WALL (       1 calls)
     davcio       :      0.00s CPU      0.08s WALL (     182 calls)

     Parallel routines

     PWSCF        :      2.83s CPU      3.80s WALL


   This run was terminated on:  22:38:54  15May2024            

=------------------------------------------------------------------------------=
   JOB DONE.
=------------------------------------------------------------------------------=
