
     Program PWSCF v.7.1 starts on 15May2024 at 22:38:47 

     This program is part of the open-source Quantum ESPRESSO suite
     for quantum simulation of materials; please cite
         "P. Giannozzi et al., J. Phys.:Condens. Matter 21 395502 (2009);
         "P. Giannozzi et al., J. Phys.:Condens. Matter 29 465901 (2017);
         "P. Giannozzi et al., J. Chem. Phys. 152 154105 (2020);
          URL http://www.quantum-espresso.org", 
     in publications or presentations arising from this work. More details at
     http://www.quantum-espresso.org/quote

     Parallel version (MPI & OpenMP), running on      10 processor cores
     Number of MPI processes:                10
     Threads/MPI process:                     1

     MPI processes distributed on     1 nodes
     14551 MiB available memory on the printing compute node when the environment starts

     Waiting for input...
     Reading input from standard input

     Current dimensions of program PWSCF are:
     Max number of different atomic species (ntypx) = 10
     Max number of k-points (npk) =  40000
     Max angular momentum in pseudopotentials (lmaxx) =  4
     file Ce.pbe-spdn-kjpaw_psl.1.0.0.UPF: wavefunction(s)  5D renormalized
     Message from routine setup:
     using ibrav=0 with symmetry is DISCOURAGED, use correct ibrav instead

     R & G space division:  proc/nbgrp/npool/nimage =      10
     Subspace diagonalization in iterative solution of the eigenvalue problem:
     a serial algorithm will be used


     Parallelization info
     --------------------
     sticks:   dense  smooth     PW     G-vecs:    dense   smooth      PW
     Min          48      40     13                  820      604     117
     Max          50      42     14                  823      605     120
     Sum         489     405    137                 8217     6043    1189

     Using Slab Decomposition



     bravais-lattice index     =            0
     lattice parameter (alat)  =       5.8511  a.u.
     unit-cell volume          =     200.3148 (a.u.)^3
     number of atoms/cell      =            1
     number of atomic types    =            1
     number of electrons       =        11.00
     number of Kohn-Sham states=           26
     kinetic-energy cutoff     =      37.0000  Ry
     charge density cutoff     =     179.0000  Ry
     scf convergence threshold =      7.3E-05
     mixing beta               =       0.7000
     number of iterations used =            8  plain     mixing
     Exchange-correlation= SLA  PW   PBX  PBC
                           (   1   4   3   4   0   0   0)

     celldm(1)=   5.851102  celldm(2)=   0.000000  celldm(3)=   0.000000
     celldm(4)=   0.000000  celldm(5)=   0.000000  celldm(6)=   0.000000

     crystal axes: (cart. coord. in units of alat)
               a(1) = (   1.000000   0.000000   0.000000 )  
               a(2) = (   0.000000   1.000000   0.000000 )  
               a(3) = (   0.000000   0.000000   1.000000 )  

     reciprocal axes: (cart. coord. in units 2 pi/alat)
               b(1) = (  1.000000  0.000000  0.000000 )  
               b(2) = (  0.000000  1.000000  0.000000 )  
               b(3) = (  0.000000  0.000000  1.000000 )  


     PseudoPot. # 1 for Ce read from file:
     ./../../../../pseudo/psl100_PBE/Ce.pbe-spdn-kjpaw_psl.1.0.0.UPF
     MD5 check sum: 1a25380276e46fcecd5a173acdad072c
     Pseudo is Projector augmented-wave + core cor, Zval = 11.0
     Generated using 'atomic' code by A. Dal Corso  v.7.2
     Shape of augmentation charge: PSQ
     Using radial grid of 1255 points,  6 beta functions with: 
                l(1) =   0
                l(2) =   0
                l(3) =   1
                l(4) =   1
                l(5) =   2
                l(6) =   2
     Q(r) pseudized with 0 coefficients 


     atomic species   valence    mass     pseudopotential
        Ce            11.00   140.11600     Ce( 1.00)

     48 Sym. Ops., with inversion, found



   Cartesian axes

     site n.     atom                  positions (alat units)
         1           Ce  tau(   1) = (   0.0000000   0.0000000   0.0000000  )

     number of k points=    56  Methfessel-Paxton smearing, width (Ry)=  0.0200
                       cart. coord. in units 2pi/alat
        k(    1) = (   0.0000000   0.0000000   0.0000000), wk =   0.0020000
        k(    2) = (   0.0000000   0.0000000   0.1000000), wk =   0.0120000
        k(    3) = (   0.0000000   0.0000000   0.2000000), wk =   0.0120000
        k(    4) = (   0.0000000   0.0000000   0.3000000), wk =   0.0120000
        k(    5) = (   0.0000000   0.0000000   0.4000000), wk =   0.0120000
        k(    6) = (   0.0000000   0.0000000  -0.5000000), wk =   0.0060000
        k(    7) = (   0.0000000   0.1000000   0.1000000), wk =   0.0240000
        k(    8) = (   0.0000000   0.1000000   0.2000000), wk =   0.0480000
        k(    9) = (   0.0000000   0.1000000   0.3000000), wk =   0.0480000
        k(   10) = (   0.0000000   0.1000000   0.4000000), wk =   0.0480000
        k(   11) = (   0.0000000   0.1000000  -0.5000000), wk =   0.0240000
        k(   12) = (   0.0000000   0.2000000   0.2000000), wk =   0.0240000
        k(   13) = (   0.0000000   0.2000000   0.3000000), wk =   0.0480000
        k(   14) = (   0.0000000   0.2000000   0.4000000), wk =   0.0480000
        k(   15) = (   0.0000000   0.2000000  -0.5000000), wk =   0.0240000
        k(   16) = (   0.0000000   0.3000000   0.3000000), wk =   0.0240000
        k(   17) = (   0.0000000   0.3000000   0.4000000), wk =   0.0480000
        k(   18) = (   0.0000000   0.3000000  -0.5000000), wk =   0.0240000
        k(   19) = (   0.0000000   0.4000000   0.4000000), wk =   0.0240000
        k(   20) = (   0.0000000   0.4000000  -0.5000000), wk =   0.0240000
        k(   21) = (   0.0000000  -0.5000000  -0.5000000), wk =   0.0060000
        k(   22) = (   0.1000000   0.1000000   0.1000000), wk =   0.0160000
        k(   23) = (   0.1000000   0.1000000   0.2000000), wk =   0.0480000
        k(   24) = (   0.1000000   0.1000000   0.3000000), wk =   0.0480000
        k(   25) = (   0.1000000   0.1000000   0.4000000), wk =   0.0480000
        k(   26) = (   0.1000000   0.1000000  -0.5000000), wk =   0.0240000
        k(   27) = (   0.1000000   0.2000000   0.2000000), wk =   0.0480000
        k(   28) = (   0.1000000   0.2000000   0.3000000), wk =   0.0960000
        k(   29) = (   0.1000000   0.2000000   0.4000000), wk =   0.0960000
        k(   30) = (   0.1000000   0.2000000  -0.5000000), wk =   0.0480000
        k(   31) = (   0.1000000   0.3000000   0.3000000), wk =   0.0480000
        k(   32) = (   0.1000000   0.3000000   0.4000000), wk =   0.0960000
        k(   33) = (   0.1000000   0.3000000  -0.5000000), wk =   0.0480000
        k(   34) = (   0.1000000   0.4000000   0.4000000), wk =   0.0480000
        k(   35) = (   0.1000000   0.4000000  -0.5000000), wk =   0.0480000
        k(   36) = (   0.1000000  -0.5000000  -0.5000000), wk =   0.0120000
        k(   37) = (   0.2000000   0.2000000   0.2000000), wk =   0.0160000
        k(   38) = (   0.2000000   0.2000000   0.3000000), wk =   0.0480000
        k(   39) = (   0.2000000   0.2000000   0.4000000), wk =   0.0480000
        k(   40) = (   0.2000000   0.2000000  -0.5000000), wk =   0.0240000
        k(   41) = (   0.2000000   0.3000000   0.3000000), wk =   0.0480000
        k(   42) = (   0.2000000   0.3000000   0.4000000), wk =   0.0960000
        k(   43) = (   0.2000000   0.3000000  -0.5000000), wk =   0.0480000
        k(   44) = (   0.2000000   0.4000000   0.4000000), wk =   0.0480000
        k(   45) = (   0.2000000   0.4000000  -0.5000000), wk =   0.0480000
        k(   46) = (   0.2000000  -0.5000000  -0.5000000), wk =   0.0120000
        k(   47) = (   0.3000000   0.3000000   0.3000000), wk =   0.0160000
        k(   48) = (   0.3000000   0.3000000   0.4000000), wk =   0.0480000
        k(   49) = (   0.3000000   0.3000000  -0.5000000), wk =   0.0240000
        k(   50) = (   0.3000000   0.4000000   0.4000000), wk =   0.0480000
        k(   51) = (   0.3000000   0.4000000  -0.5000000), wk =   0.0480000
        k(   52) = (   0.3000000  -0.5000000  -0.5000000), wk =   0.0120000
        k(   53) = (   0.4000000   0.4000000   0.4000000), wk =   0.0160000
        k(   54) = (   0.4000000   0.4000000  -0.5000000), wk =   0.0240000
        k(   55) = (   0.4000000  -0.5000000  -0.5000000), wk =   0.0120000
        k(   56) = (  -0.5000000  -0.5000000  -0.5000000), wk =   0.0020000

     Dense  grid:     8217 G-vectors     FFT dimensions: (  25,  25,  25)

     Smooth grid:     6043 G-vectors     FFT dimensions: (  24,  24,  24)

     Estimated max dynamical RAM per process >       5.63 MB

     Estimated total dynamical RAM >      56.31 MB

     Initial potential from superposition of free atoms

     starting charge      10.9735, renormalised to      11.0000
     Starting wfcs are   13 randomized atomic wfcs +   13 random wfcs
     Checking if some PAW data can be deallocated... 

     total cpu time spent up to now is        0.6 secs

     per-process dynamical memory:    12.8 Mb

     Self-consistent Calculation

     iteration #  1     ecut=    37.00 Ry     beta= 0.70
     Davidson diagonalization with overlap
     ethr =  1.00E-02,  avg # of iterations =  6.8

     Threshold (ethr) on eigenvalues was too large:
     Diagonalizing with lowered threshold

     Davidson diagonalization with overlap
     ethr =  9.10E-05,  avg # of iterations =  3.3

     total cpu time spent up to now is        1.8 secs

     total energy              =    -471.68141523 Ry
     estimated scf accuracy    <       0.01021340 Ry

     iteration #  2     ecut=    37.00 Ry     beta= 0.70
     Davidson diagonalization with overlap
     ethr =  9.28E-05,  avg # of iterations =  1.5

     total cpu time spent up to now is        2.2 secs

     total energy              =    -471.68375412 Ry
     estimated scf accuracy    <       0.00045699 Ry

     iteration #  3     ecut=    37.00 Ry     beta= 0.70
     Davidson diagonalization with overlap
     ethr =  4.15E-06,  avg # of iterations =  3.1

     total cpu time spent up to now is        2.6 secs

     End of self-consistent calculation

          k = 0.0000 0.0000 0.0000 (   751 PWs)   bands (ev):

   -21.3869  -2.7030  -2.7030  -2.7030  10.6769  12.0802  12.0802  21.3897
    21.3897  21.3897  25.5407  25.5407  25.5407  29.4146  29.4146  29.4146
    31.1384  31.5078  31.5078  38.8195  44.8637  44.8637  44.8637  45.5614
    45.5614  45.5614

          k = 0.0000 0.0000 0.1000 (   751 PWs)   bands (ev):

   -21.3518  -3.0273  -2.6754  -2.6754  10.9518  12.1608  12.5565  20.5681
    20.5681  21.4396  24.5551  26.2740  26.2740  27.6474  29.9719  29.9719
    31.4513  32.6499  33.6237  38.0145  42.6087  42.6087  43.9155  46.0360
    46.4995  47.8355

          k = 0.0000 0.0000 0.2000 (   763 PWs)   bands (ev):

   -21.2581  -3.7966  -2.6024  -2.6024  11.4887  12.3848  13.9651  19.1486
    19.1486  21.5748  22.9596  25.5129  27.3028  27.3028  31.7215  31.7235
    31.7235  35.3375  36.5400  36.8137  40.3998  40.3998  40.6133  43.0387
    48.6173  49.4389

          k = 0.0000 0.0000 0.3000 (   759 PWs)   bands (ev):

   -21.1382  -4.6325  -2.5099  -2.5099  12.1223  12.6929  15.5716  17.9253
    17.9253  21.7523  22.1806  23.7947  28.0510  28.0510  31.7685  34.1680
    34.1680  35.2203  36.5883  37.9073  38.8953  38.8953  40.3255  41.8367
    49.6686  49.6688

          k = 0.0000 0.0000 0.4000 (   772 PWs)   bands (ev):

   -21.0378  -5.2435  -2.4332  -2.4332  12.7785  12.9755  16.1097  17.1306
    17.1306  21.9054  22.6568  23.4289  28.5883  28.5883  29.9839  34.3404
    34.9453  35.5714  35.5714  37.5810  39.4663  39.4663  44.0262  44.2491
    47.3859  47.3860

          k = 0.0000 0.0000-0.5000 (   756 PWs)   bands (ev):

   -20.9984  -5.4649  -2.4034  -2.4034  13.0937  13.1162  15.9851  16.8567
    16.8567  21.9665  22.2526  25.8037  27.1941  28.8039  28.8039  34.0323
    35.0088  35.5618  35.5618  36.9786  41.3717  41.3717  44.8726  44.8726
    47.2791  48.0278

          k = 0.0000 0.1000 0.1000 (   756 PWs)   bands (ev):

   -21.3169  -3.0142  -2.9809  -2.6481  11.2408  12.4636  12.7832  19.7159
    20.4465  20.8368  25.1008  25.4067  27.0911  27.8311  28.8990  30.3977
    32.8041  33.4074  34.8478  37.0280  40.6965  43.1262  44.5587  45.2811
    46.2509  47.0103

          k = 0.0000 0.1000 0.2000 (   765 PWs)   bands (ev):

   -21.2234  -3.7631  -2.9178  -2.5754  11.7657  12.7749  14.0562  18.3346
    19.1973  20.8509  23.5660  26.1744  26.1958  28.2921  30.5078  31.9144
    33.3203  35.3963  35.8532  37.7220  38.6413  40.9721  41.7847  44.8758
    46.2448  47.3065

          k = 0.0000 0.1000 0.3000 (   763 PWs)   bands (ev):

   -21.1038  -4.5948  -2.8180  -2.4835  12.3547  13.1034  15.3030  17.6299
    17.9942  21.0473  22.5675  24.5827  26.8636  29.0866  32.9385  33.1858
    33.4233  34.9694  36.2096  37.6765  39.3436  40.3098  40.8980  43.4813
    46.5039  49.5950

          k = 0.0000 0.1000 0.4000 (   771 PWs)   bands (ev):

   -21.0036  -5.2034  -2.7349  -2.4073  12.9395  13.4669  15.0409  17.2062
    17.8623  21.2247  23.2204  23.7635  27.3878  29.6342  30.6283  32.6293
    33.8097  35.9475  37.0906  38.0795  40.0260  40.0871  43.8419  44.9529
    46.8630  47.1852

          k = 0.0000 0.1000-0.5000 (   774 PWs)   bands (ev):

   -20.9644  -5.4240  -2.7026  -2.3777  13.1970  13.7607  14.6227  16.9338
    17.8393  21.2963  23.0498  25.5282  27.2907  28.3135  29.8680  32.2498
    33.5500  36.1993  37.5497  39.2184  40.7136  41.4226  43.4762  45.0606
    45.7348  47.6108

          k = 0.0000 0.2000 0.2000 (   774 PWs)   bands (ev):

   -21.1306  -3.7093  -3.6335  -2.5039  12.1955  13.5953  14.6723  17.1884
    19.1390  19.7325  23.9418  24.7612  27.4835  29.6029  30.0410  32.7652
    33.7109  34.9595  36.3664  37.3122  40.1750  40.3725  43.0389  43.5084
    46.5159  47.5192

          k = 0.0000 0.2000 0.3000 (   755 PWs)   bands (ev):

   -21.0118  -4.4944  -3.5540  -2.4134  12.6312  13.6533  15.4674  17.4808
    18.1775  19.7372  22.9815  25.1156  26.6716  30.7787  31.5338  32.4767
    34.1046  34.9859  35.1174  38.5997  39.5812  42.1191  42.8648  43.8614
    46.2334  48.7148

          k = 0.0000 0.2000 0.4000 (   759 PWs)   bands (ev):

   -20.9124  -5.0957  -3.4582  -2.3384  12.9442  13.4545  15.4907  17.4151
    18.5523  19.9300  23.3775  25.4115  26.1491  30.4496  30.9988  31.9640
    32.2833  36.1325  38.1433  38.7928  41.0096  41.9310  42.8901  44.3878
    45.6743  47.7837

          k = 0.0000 0.2000-0.5000 (   762 PWs)   bands (ev):

   -20.8735  -5.3140  -3.4207  -2.3093  12.9588  13.4597  15.5160  17.1479
    18.6964  20.0134  24.6194  24.9811  27.5578  27.8437  30.1988  31.5022
    32.3371  38.7312  39.4693  40.1162  40.4346  41.4175  41.5609  43.4312
    45.6793  47.8121

          k = 0.0000 0.3000 0.3000 (   756 PWs)   bands (ev):

   -20.8943  -4.3967  -4.3295  -2.3248  12.4602  13.4093  17.2462  17.8168
    18.2821  18.7171  22.9412  24.4236  28.0671  29.8690  31.5013  32.6561
    34.5569  34.6649  35.8011  37.1751  41.3913  42.0170  44.8064  45.5653
    46.8184  48.1725

          k = 0.0000 0.3000 0.4000 (   760 PWs)   bands (ev):

   -20.7959  -4.9574  -4.2534  -2.2515  11.8524  13.6799  17.6985  17.7431
    18.7644  19.1080  23.0595  25.1752  27.6312  28.9022  30.6281  31.8069
    34.7520  35.3404  36.8323  38.6391  42.0303  42.5155  44.3279  44.9979
    47.0630  48.0894

          k = 0.0000 0.3000-0.5000 (   762 PWs)   bands (ev):

   -20.7574  -5.1724  -4.2112  -2.2231  11.6057  13.8318  17.4412  17.8578
    18.8518  19.3738  23.5846  26.8090  27.6445  27.8142  28.5486  30.9624
    35.4821  36.8435  38.0316  39.0239  41.7415  42.2511  42.3511  46.4345
    46.8464  46.9833

          k = 0.0000 0.4000 0.4000 (   758 PWs)   bands (ev):

   -20.6983  -4.8519  -4.8278  -2.1796  11.0225  14.0319  17.9032  18.0494
    19.5359  19.5595  23.0488  25.7467  27.3811  27.8357  30.3412  32.7270
    33.8141  34.5912  38.6455  39.1245  40.4418  44.5900  45.6676  45.9382
    46.0383  46.5904

          k = 0.0000 0.4000-0.5000 (   766 PWs)   bands (ev):

   -20.6602  -5.0530  -4.7940  -2.1518  10.7311  14.1882  17.7083  18.0851
    19.7378  19.9234  23.5499  26.9541  27.4560  27.5914  27.8780  32.9745
    33.0338  37.1287  37.7352  39.0008  41.8988  43.5112  43.6156  45.9840
    46.9202  48.1604

          k = 0.0000-0.5000-0.5000 (   768 PWs)   bands (ev):

   -20.6222  -5.0060  -5.0060  -2.1241  10.4287  14.3428  17.8193  17.8193
    20.1574  20.1574  24.4390  26.5593  27.0683  27.7953  27.7953  31.0728
    35.0126  36.8011  36.8011  41.7162  41.7913  42.1759  43.9133  43.9133
    48.6377  48.8749

          k = 0.1000 0.1000 0.1000 (   766 PWs)   bands (ev):

   -21.2820  -3.0003  -2.9519  -2.9519  11.5723  12.8602  12.8602  19.5394
    19.9335  19.9335  26.0652  26.0652  26.1021  28.4726  28.4726  29.8532
    33.8683  35.1199  35.1199  35.8485  41.2049  42.9174  42.9174  45.2002
    45.2002  47.7962

          k = 0.1000 0.1000 0.2000 (   765 PWs)   bands (ev):

   -21.1887  -3.7299  -2.9028  -2.8747  12.1285  13.0754  14.1399  18.4008
    18.4165  20.0251  24.4346  26.6046  26.9198  27.5908  30.3841  31.1437
    33.9628  34.7842  36.9857  38.0149  39.7725  40.7943  41.1835  45.2533
    45.3926  47.0401

          k = 0.1000 0.1000 0.3000 (   756 PWs)   bands (ev):

   -21.0694  -4.5575  -2.8023  -2.7769  12.7086  13.3777  15.1901  17.1105
    18.1465  20.2559  23.3022  25.0783  27.4973  28.4367  31.7079  33.6193
    33.8348  34.3000  36.8329  38.6450  38.9355  40.6254  41.4237  44.9124
    45.7741  47.6625

          k = 0.1000 0.1000 0.4000 (   763 PWs)   bands (ev):

   -20.9695  -5.1635  -2.7186  -2.6958  13.3520  13.6698  14.8113  16.2374
    18.9461  20.4709  23.8243  24.0282  27.9106  29.0075  30.7831  31.1198
    35.6396  35.7577  36.8612  38.4553  38.9788  41.9640  43.9163  45.2540
    46.2818  46.6861

          k = 0.1000 0.1000-0.5000 (   764 PWs)   bands (ev):

   -20.9304  -5.3833  -2.6861  -2.6642  13.8012  13.8911  14.2605  15.9218
    19.1065  20.5636  23.6560  25.6455  27.3504  29.2018  29.2305  30.3322
    35.6726  35.8625  37.3870  40.7189  40.8091  40.9510  43.6074  43.9243
    44.8623  48.0614

          k = 0.1000 0.2000 0.2000 (   756 PWs)   bands (ev):

   -21.0961  -3.6761  -3.6014  -2.8113  12.6187  13.8233  14.7238  17.2483
    18.5255  18.7591  25.2026  25.6647  27.6638  29.1247  29.6777  31.7683
    32.2861  36.5120  37.5615  38.7216  40.0709  40.6689  42.6032  42.9334
    44.3200  47.6252

          k = 0.1000 0.2000 0.3000 (   760 PWs)   bands (ev):

   -20.9777  -4.4578  -3.5223  -2.7141  12.9672  13.9413  15.4956  16.7353
    18.3738  18.9418  24.0656  26.1028  26.8242  29.5105  30.9274  32.3172
    34.0912  35.2261  35.9461  39.4798  40.3448  41.3174  42.6275  44.2451
    46.3071  47.5758

          k = 0.1000 0.2000 0.4000 (   764 PWs)   bands (ev):

   -20.8785  -5.0567  -3.4272  -2.6333  13.0529  13.9800  15.5295  16.0453
    19.1574  19.8355  24.0419  25.8728  26.6559  28.7466  30.9266  31.7686
    33.8774  36.4549  37.1689  39.7626  40.4504  41.1777  44.0500  44.8778
    45.6640  47.4204

          k = 0.1000 0.2000-0.5000 (   766 PWs)   bands (ev):

   -20.8397  -5.2742  -3.3900  -2.6019  12.9880  14.0897  15.5535  15.7231
    19.2749  20.2445  25.3260  25.3415  27.1877  28.3402  28.7267  31.5656
    33.7117  38.5407  39.3125  40.1077  40.6877  40.9072  41.5194  43.6431
    45.4610  47.7837

          k = 0.1000 0.3000 0.3000 (   758 PWs)   bands (ev):

   -20.8604  -4.3605  -4.2948  -2.6192  12.5637  13.9511  16.7831  16.7907
    18.2901  18.9659  24.2158  25.1260  27.4500  29.4283  31.6069  33.5403
    34.3706  34.5079  35.1908  37.4880  42.5457  42.5965  43.9281  45.6692
    46.0402  46.5284

          k = 0.1000 0.3000 0.4000 (   766 PWs)   bands (ev):

   -20.7623  -4.9196  -4.2190  -2.5404  11.9431  14.2620  16.2988  17.0354
    18.7961  20.4276  24.0154  25.5347  26.6156  28.9638  31.3121  32.7371
    34.4470  35.0608  36.7826  37.9707  42.2820  43.1160  43.4008  45.9456
    46.5932  47.5582

          k = 0.1000 0.3000-0.5000 (   772 PWs)   bands (ev):

   -20.7239  -5.1340  -4.1772  -2.5099  11.6989  14.4481  15.9897  17.1330
    18.9395  20.9991  24.5118  25.8586  27.0894  28.0624  29.2392  32.3985
    34.6315  36.8815  38.1031  39.1345  41.1156  41.1695  43.4450  44.9754
    47.5779  47.6744

          k = 0.1000 0.4000 0.4000 (   757 PWs)   bands (ev):

   -20.6649  -4.8150  -4.7915  -2.4634  11.1279  14.6289  16.5595  16.6402
    20.5678  20.9590  23.8020  24.9865  26.4112  29.8084  30.4452  33.2159
    33.8570  34.6825  37.9578  38.3576  40.5273  44.7422  44.7958  45.4563
    46.9969  47.1187

          k = 0.1000 0.4000-0.5000 (   762 PWs)   bands (ev):

   -20.6269  -5.0156  -4.7579  -2.4335  10.8399  14.8174  16.3001  16.7293
    20.9202  21.5410  24.0576  24.6875  27.8071  28.0612  29.6866  32.9545
    33.4308  37.2046  37.8690  38.2771  41.3432  42.3914  43.7427  45.6335
    46.9877  47.3412

          k = 0.1000-0.5000-0.5000 (   752 PWs)   bands (ev):

   -20.5890  -4.9691  -4.9691  -2.4038  10.5409  15.0014  16.4376  16.4376
    21.7712  21.7712  24.2248  24.4778  28.0028  28.0028  29.4904  31.0853
    35.3140  36.8805  36.8805  41.2667  41.5928  41.8407  42.8027  42.8027
    47.7583  49.4270

          k = 0.2000 0.2000 0.2000 (   754 PWs)   bands (ev):

   -21.0041  -3.6175  -3.5160  -3.5160  13.1115  14.8456  14.8456  17.2259
    17.2259  17.9586  26.4966  27.3613  27.3613  29.3771  29.3771  30.5676
    31.1594  38.4949  39.0071  39.0071  41.1606  41.3180  41.3180  42.8645
    42.8645  45.6116

          k = 0.2000 0.2000 0.3000 (   764 PWs)   bands (ev):

   -20.8865  -4.3603  -3.4653  -3.4074  13.1423  14.8848  15.5007  16.0944
    17.6422  18.8443  25.5059  26.9394  27.6878  29.2744  29.5442  32.4073
    32.7721  35.6436  38.0898  39.6003  39.9320  42.0921  43.3174  44.3468
    45.0444  45.9567

          k = 0.2000 0.2000 0.4000 (   763 PWs)   bands (ev):

   -20.7880  -4.9525  -3.3701  -3.3169  12.9378  14.5813  15.4961  15.7501
    18.0980  20.9866  24.9094  26.3850  26.8672  28.9336  30.2453  31.8252
    35.4459  35.6684  37.5110  38.8953  39.9763  42.4416  43.7578  44.6754
    45.3705  47.3249

          k = 0.2000 0.2000-0.5000 (   764 PWs)   bands (ev):

   -20.7496  -5.1678  -3.3327  -3.2816  12.8171  14.3773  15.5137  15.7434
    18.2526  21.9713  25.5197  26.0330  26.5475  28.5778  29.8994  30.4964
    36.4978  36.6869  39.3987  39.4088  40.2108  41.0216  42.2708  42.6958
    45.0425  47.9697

          k = 0.2000 0.3000 0.3000 (   757 PWs)   bands (ev):

   -20.7701  -4.2643  -4.2022  -3.3268  12.7322  14.6911  15.4899  16.4297
    18.1888  19.5941  24.8225  26.7207  28.2106  29.3644  31.8586  31.9915
    33.4471  35.0740  37.1513  37.3042  41.7605  43.2943  43.5494  45.0631
    45.4734  46.0683

          k = 0.2000 0.3000 0.4000 (   757 PWs)   bands (ev):

   -20.6725  -4.8187  -4.1272  -3.2368  12.1711  14.4050  15.3097  16.5530
    18.9967  21.7136  23.9139  26.1855  28.0605  29.2773  31.6258  32.8941
    34.4898  35.9395  36.4141  37.1077  41.1010  42.5789  44.0124  44.9889
    45.8450  46.5356

          k = 0.2000 0.3000-0.5000 (   760 PWs)   bands (ev):

   -20.6344  -5.0310  -4.0865  -3.2017  11.9421  14.2337  15.3247  16.6276
    19.1849  22.8682  23.9970  26.0344  28.0155  29.1428  29.6161  33.1401
    35.1131  36.5762  38.2762  38.9530  39.8794  39.9111  43.0837  44.1734
    45.7603  47.8806

          k = 0.2000 0.4000 0.4000 (   758 PWs)   bands (ev):

   -20.5758  -4.7164  -4.6944  -3.1492  11.4253  14.5675  14.8845  16.6841
    21.2797  22.4295  22.9248  25.9031  27.8639  30.7778  31.0461  33.3419
    34.9358  35.4526  36.6306  36.9368  40.7485  42.7604  43.8610  44.7546
    45.0364  46.6977

          k = 0.2000 0.4000-0.5000 (   762 PWs)   bands (ev):

   -20.5381  -4.9158  -4.6612  -3.1150  11.1497  14.5057  14.8572  16.7511
    21.8940  22.3245  23.9375  25.5223  28.5861  28.7817  31.3722  32.7862
    34.9443  36.8804  37.4126  38.3217  40.0978  40.5541  43.5126  44.0141
    45.2599  45.9081

          k = 0.2000-0.5000-0.5000 (   752 PWs)   bands (ev):

   -20.5004  -4.8705  -4.8705  -3.0812  10.8625  14.6489  14.6489  16.8113
    21.9249  24.1013  24.1013  24.5821  28.7488  28.7488  31.0335  31.7901
    36.4481  37.1011  37.1011  40.1604  40.1991  40.9360  40.9360  42.2008
    45.1705  46.2292

          k = 0.3000 0.3000 0.3000 (   750 PWs)   bands (ev):

   -20.6546  -4.1649  -4.0839  -4.0839  12.6742  14.2302  14.2302  18.3357
    18.3357  20.4585  23.3033  29.1880  29.1880  30.1058  31.7742  31.7742
    33.2888  35.2766  35.2766  39.1205  41.6680  41.7028  41.7028  45.7470
    45.7471  47.5011

          k = 0.3000 0.3000 0.4000 (   761 PWs)   bands (ev):

   -20.5580  -4.6894  -4.0327  -3.9850  12.2775  13.3953  14.2234  18.4970
    19.6089  22.1149  22.6498  28.1822  29.9382  30.2069  32.0835  32.1145
    34.7634  35.0132  35.7720  38.6256  40.1518  41.1942  43.2801  43.6922
    45.1142  47.0081

          k = 0.3000 0.3000-0.5000 (   764 PWs)   bands (ev):

   -20.5203  -4.8990  -3.9926  -3.9464  12.0754  13.1055  14.3083  18.5646
    19.8976  21.7165  24.8643  26.7960  29.8270  30.0327  30.8839  32.3840
    35.2485  37.5793  37.5944  38.3315  38.7351  40.2060  41.8308  42.1945
    46.2566  47.8113

          k = 0.3000 0.4000 0.4000 (   754 PWs)   bands (ev):

   -20.4621  -4.5903  -4.5702  -3.9101  11.8405  13.2859  13.4945  19.1727
    20.9328  21.6408  23.6533  28.3190  30.2351  31.4039  31.4676  32.6362
    35.2371  35.3916  35.8411  38.1171  40.4376  40.9335  42.1576  43.2060
    44.7573  45.1366

          k = 0.3000 0.4000-0.5000 (   748 PWs)   bands (ev):

   -20.4247  -4.7878  -4.5377  -3.8719  11.5959  13.1013  13.5167  19.2942
    20.4787  22.3972  25.6283  26.8033  30.2653  30.4844  32.0852  32.1733
    35.6830  36.9305  37.6704  38.7615  38.8813  39.5047  40.9546  43.4450
    43.8609  44.5948

          k = 0.3000-0.5000-0.5000 (   744 PWs)   bands (ev):

   -20.3874  -4.7443  -4.7443  -3.8343  11.3352  13.2381  13.2381  19.4301
    20.0125  24.7171  25.8738  25.8738  30.3949  30.3949  30.5523  33.1892
    37.4056  37.4056  38.5929  38.6692  39.0830  39.2847  39.2847  41.6781
    42.7430  45.0724

          k = 0.4000 0.4000 0.4000 (   762 PWs)   bands (ev):

   -20.3670  -4.4923  -4.4661  -4.4661  12.0873  12.6106  12.6106  19.6418
    21.8626  21.8626  24.6545  29.8336  29.8336  32.0767  32.4905  32.4905
    35.4215  35.4215  36.0593  38.8579  40.3315  40.3315  40.3719  42.2539
    44.6562  44.6566

          k = 0.4000 0.4000-0.5000 (   756 PWs)   bands (ev):

   -20.3298  -4.6805  -4.4421  -4.4254  11.9514  12.3072  12.6440  19.1580
    21.9428  23.0404  26.5020  27.2741  30.2426  32.4147  32.4154  32.7583
    35.7113  37.7203  37.8606  37.9517  38.0452  39.4159  40.7437  41.1946
    44.2983  44.9323

          k = 0.4000-0.5000-0.5000 (   748 PWs)   bands (ev):

   -20.2928  -4.6385  -4.6385  -4.3933  11.8157  12.3435  12.3435  18.6603
    22.4884  24.8315  26.7651  26.7651  28.9849  32.7236  32.7236  33.8651
    37.5488  37.6298  37.6298  38.1944  38.1944  38.3421  39.4261  40.8214
    43.3187  45.3007

          k =-0.5000-0.5000-0.5000 (   720 PWs)   bands (ev):

   -20.2559  -4.5970  -4.5970  -4.5970  12.0369  12.0369  12.0369  18.1475
    24.8766  24.8766  27.0295  27.0295  27.0295  34.0796  34.0796  34.0796
    37.4157  37.4157  37.4157  38.0809  38.0809  38.0809  38.5236  41.3651
    43.5974  43.5975

     the Fermi energy is    13.7165 ev

!    total energy              =    -471.68382285 Ry
     total all-electron energy =    -17721.208552 Ry
     estimated scf accuracy    <       0.00001488 Ry
     smearing contrib. (-TS)   =       0.00035104 Ry
     internal energy E=F+TS    =    -471.68417389 Ry

     The total energy is F=E-TS. E is the sum of the following terms:
     one-electron contribution =      -1.19371288 Ry
     hartree contribution      =       7.29668824 Ry
     xc contribution           =     -73.33735181 Ry
     ewald contribution        =     -58.67492609 Ry
     one-center paw contrib.   =    -345.77487135 Ry

     convergence has been achieved in   3 iterations

     Writing all to output data dir ./work/POSCAR.save/

     init_run     :      0.34s CPU      0.37s WALL (       1 calls)
     electrons    :      1.59s CPU      2.04s WALL (       1 calls)

     Called by init_run:
     wfcinit      :      0.09s CPU      0.09s WALL (       1 calls)
     potinit      :      0.19s CPU      0.21s WALL (       1 calls)
     hinit0       :      0.06s CPU      0.06s WALL (       1 calls)

     Called by electrons:
     c_bands      :      1.35s CPU      1.74s WALL (       4 calls)
     sum_band     :      0.15s CPU      0.15s WALL (       4 calls)
     v_of_rho     :      0.00s CPU      0.00s WALL (       4 calls)
     newd         :      0.01s CPU      0.01s WALL (       4 calls)
     PAW_pot      :      0.13s CPU      0.19s WALL (       4 calls)
     mix_rho      :      0.00s CPU      0.00s WALL (       4 calls)

     Called by c_bands:
     init_us_2    :      0.01s CPU      0.01s WALL (     504 calls)
     init_us_2:cp :      0.01s CPU      0.01s WALL (     504 calls)
     cegterg      :      1.32s CPU      1.35s WALL (     224 calls)

     Called by *egterg:
     cdiaghg      :      0.43s CPU      0.44s WALL (     988 calls)
     h_psi        :      0.78s CPU      0.80s WALL (    1100 calls)
     s_psi        :      0.01s CPU      0.01s WALL (    1100 calls)
     g_psi        :      0.00s CPU      0.00s WALL (     820 calls)

     Called by h_psi:
     h_psi:calbec :      0.03s CPU      0.04s WALL (    1100 calls)
     vloc_psi     :      0.73s CPU      0.75s WALL (    1100 calls)
     add_vuspsi   :      0.01s CPU      0.01s WALL (    1100 calls)

     General routines
     calbec       :      0.04s CPU      0.04s WALL (    1324 calls)
     fft          :      0.04s CPU      0.04s WALL (      51 calls)
     ffts         :      0.13s CPU      0.13s WALL (       8 calls)
     fftw         :      0.79s CPU      0.81s WALL (   39854 calls)
     interpolate  :      0.13s CPU      0.13s WALL (       4 calls)

     Parallel routines

     PWSCF        :      2.06s CPU      3.10s WALL


   This run was terminated on:  22:38:50  15May2024            

=------------------------------------------------------------------------------=
   JOB DONE.
=------------------------------------------------------------------------------=
