
     Program PWSCF v.7.1 starts on 15May2024 at 22:41:51 

     This program is part of the open-source Quantum ESPRESSO suite
     for quantum simulation of materials; please cite
         "P. Giannozzi et al., J. Phys.:Condens. Matter 21 395502 (2009);
         "P. Giannozzi et al., J. Phys.:Condens. Matter 29 465901 (2017);
         "P. Giannozzi et al., J. Chem. Phys. 152 154105 (2020);
          URL http://www.quantum-espresso.org", 
     in publications or presentations arising from this work. More details at
     http://www.quantum-espresso.org/quote

     Parallel version (MPI & OpenMP), running on      10 processor cores
     Number of MPI processes:                10
     Threads/MPI process:                     1

     MPI processes distributed on     1 nodes
     14492 MiB available memory on the printing compute node when the environment starts

     Waiting for input...
     Reading input from standard input

     Current dimensions of program PWSCF are:
     Max number of different atomic species (ntypx) = 10
     Max number of k-points (npk) =  40000
     Max angular momentum in pseudopotentials (lmaxx) =  4

     Atomic positions and unit cell read from directory:
     ./work/POSCAR.save/

     file Ce.pbe-spdn-kjpaw_psl.1.0.0.UPF: wavefunction(s)  5D renormalized
     Message from routine setup:
     using ibrav=0 with symmetry is DISCOURAGED, use correct ibrav instead

     R & G space division:  proc/nbgrp/npool/nimage =      10
     Subspace diagonalization in iterative solution of the eigenvalue problem:
     a serial algorithm will be used


     Parallelization info
     --------------------
     sticks:   dense  smooth     PW     G-vecs:    dense   smooth      PW
     Min          59      49     16                 1105      837     154
     Max          60      50     17                 1110      840     157
     Sum         593     497    161                11067     8385    1551

     Using Slab Decomposition



     bravais-lattice index     =            0
     lattice parameter (alat)  =       6.5064  a.u.
     unit-cell volume          =     275.4349 (a.u.)^3
     number of atoms/cell      =            1
     number of atomic types    =            1
     number of electrons       =        11.00
     number of Kohn-Sham states=           26
     kinetic-energy cutoff     =      37.0000  Ry
     charge density cutoff     =     179.0000  Ry
     Exchange-correlation= SLA  PW   PBX  PBC
                           (   1   4   3   4   0   0   0)

     celldm(1)=   6.506384  celldm(2)=   0.000000  celldm(3)=   0.000000
     celldm(4)=   0.000000  celldm(5)=   0.000000  celldm(6)=   0.000000

     crystal axes: (cart. coord. in units of alat)
               a(1) = (   1.000000   0.000000   0.000000 )  
               a(2) = (   0.000000   1.000000   0.000000 )  
               a(3) = (   0.000000   0.000000   1.000000 )  

     reciprocal axes: (cart. coord. in units 2 pi/alat)
               b(1) = (  1.000000  0.000000  0.000000 )  
               b(2) = (  0.000000  1.000000  0.000000 )  
               b(3) = (  0.000000  0.000000  1.000000 )  


     PseudoPot. # 1 for Ce read from file:
     ./../../../../pseudo/psl100_PBE/Ce.pbe-spdn-kjpaw_psl.1.0.0.UPF
     MD5 check sum: 1a25380276e46fcecd5a173acdad072c
     Pseudo is Projector augmented-wave + core cor, Zval = 11.0
     Generated using 'atomic' code by A. Dal Corso  v.7.2
     Shape of augmentation charge: PSQ
     Using radial grid of 1255 points,  6 beta functions with: 
                l(1) =   0
                l(2) =   0
                l(3) =   1
                l(4) =   1
                l(5) =   2
                l(6) =   2
     Q(r) pseudized with 0 coefficients 


     atomic species   valence    mass     pseudopotential
        Ce            11.00   140.11600     Ce( 1.00)

     48 Sym. Ops., with inversion, found



   Cartesian axes

     site n.     atom                  positions (alat units)
         1           Ce  tau(   1) = (   0.0000000   0.0000000   0.0000000  )

     number of k points=    91  Methfessel-Paxton smearing, width (Ry)=  0.0200
                       cart. coord. in units 2pi/alat
        k(    1) = (   0.0000000   0.5000000   0.5000000), wk =   0.0219780
        k(    2) = (   0.0500000   0.5000000   0.5000000), wk =   0.0219780
        k(    3) = (   0.1000000   0.5000000   0.5000000), wk =   0.0219780
        k(    4) = (   0.1500000   0.5000000   0.5000000), wk =   0.0219780
        k(    5) = (   0.2000000   0.5000000   0.5000000), wk =   0.0219780
        k(    6) = (   0.2500000   0.5000000   0.5000000), wk =   0.0219780
        k(    7) = (   0.3000000   0.5000000   0.5000000), wk =   0.0219780
        k(    8) = (   0.3500000   0.5000000   0.5000000), wk =   0.0219780
        k(    9) = (   0.4000000   0.5000000   0.5000000), wk =   0.0219780
        k(   10) = (   0.4500000   0.5000000   0.5000000), wk =   0.0219780
        k(   11) = (   0.5000000   0.5000000   0.5000000), wk =   0.0219780
        k(   12) = (   0.4750000   0.4750000   0.4750000), wk =   0.0219780
        k(   13) = (   0.4500000   0.4500000   0.4500000), wk =   0.0219780
        k(   14) = (   0.4250000   0.4250000   0.4250000), wk =   0.0219780
        k(   15) = (   0.4000000   0.4000000   0.4000000), wk =   0.0219780
        k(   16) = (   0.3750000   0.3750000   0.3750000), wk =   0.0219780
        k(   17) = (   0.3500000   0.3500000   0.3500000), wk =   0.0219780
        k(   18) = (   0.3250000   0.3250000   0.3250000), wk =   0.0219780
        k(   19) = (   0.3000000   0.3000000   0.3000000), wk =   0.0219780
        k(   20) = (   0.2750000   0.2750000   0.2750000), wk =   0.0219780
        k(   21) = (   0.2500000   0.2500000   0.2500000), wk =   0.0219780
        k(   22) = (   0.2250000   0.2250000   0.2250000), wk =   0.0219780
        k(   23) = (   0.2000000   0.2000000   0.2000000), wk =   0.0219780
        k(   24) = (   0.1750000   0.1750000   0.1750000), wk =   0.0219780
        k(   25) = (   0.1500000   0.1500000   0.1500000), wk =   0.0219780
        k(   26) = (   0.1250000   0.1250000   0.1250000), wk =   0.0219780
        k(   27) = (   0.1000000   0.1000000   0.1000000), wk =   0.0219780
        k(   28) = (   0.0750000   0.0750000   0.0750000), wk =   0.0219780
        k(   29) = (   0.0500000   0.0500000   0.0500000), wk =   0.0219780
        k(   30) = (   0.0250000   0.0250000   0.0250000), wk =   0.0219780
        k(   31) = (   0.0000000   0.0000000   0.0000000), wk =   0.0219780
        k(   32) = (   0.0500000   0.0000000   0.0000000), wk =   0.0219780
        k(   33) = (   0.1000000   0.0000000   0.0000000), wk =   0.0219780
        k(   34) = (   0.1500000   0.0000000   0.0000000), wk =   0.0219780
        k(   35) = (   0.2000000   0.0000000   0.0000000), wk =   0.0219780
        k(   36) = (   0.2500000   0.0000000   0.0000000), wk =   0.0219780
        k(   37) = (   0.3000000   0.0000000   0.0000000), wk =   0.0219780
        k(   38) = (   0.3500000   0.0000000   0.0000000), wk =   0.0219780
        k(   39) = (   0.4000000   0.0000000   0.0000000), wk =   0.0219780
        k(   40) = (   0.4500000   0.0000000   0.0000000), wk =   0.0219780
        k(   41) = (   0.5000000   0.0000000   0.0000000), wk =   0.0219780
        k(   42) = (   0.5000000   0.0500000   0.0000000), wk =   0.0219780
        k(   43) = (   0.5000000   0.1000000   0.0000000), wk =   0.0219780
        k(   44) = (   0.5000000   0.1500000   0.0000000), wk =   0.0219780
        k(   45) = (   0.5000000   0.2000000   0.0000000), wk =   0.0219780
        k(   46) = (   0.5000000   0.2500000   0.0000000), wk =   0.0219780
        k(   47) = (   0.5000000   0.3000000   0.0000000), wk =   0.0219780
        k(   48) = (   0.5000000   0.3500000   0.0000000), wk =   0.0219780
        k(   49) = (   0.5000000   0.4000000   0.0000000), wk =   0.0219780
        k(   50) = (   0.5000000   0.4500000   0.0000000), wk =   0.0219780
        k(   51) = (   0.5000000   0.5000000   0.0000000), wk =   0.0219780
        k(   52) = (   0.4750000   0.4750000   0.0000000), wk =   0.0219780
        k(   53) = (   0.4500000   0.4500000   0.0000000), wk =   0.0219780
        k(   54) = (   0.4250000   0.4250000   0.0000000), wk =   0.0219780
        k(   55) = (   0.4000000   0.4000000   0.0000000), wk =   0.0219780
        k(   56) = (   0.3750000   0.3750000   0.0000000), wk =   0.0219780
        k(   57) = (   0.3500000   0.3500000   0.0000000), wk =   0.0219780
        k(   58) = (   0.3250000   0.3250000   0.0000000), wk =   0.0219780
        k(   59) = (   0.3000000   0.3000000   0.0000000), wk =   0.0219780
        k(   60) = (   0.2750000   0.2750000   0.0000000), wk =   0.0219780
        k(   61) = (   0.2500000   0.2500000   0.0000000), wk =   0.0219780
        k(   62) = (   0.2250000   0.2250000   0.0000000), wk =   0.0219780
        k(   63) = (   0.2000000   0.2000000   0.0000000), wk =   0.0219780
        k(   64) = (   0.1750000   0.1750000   0.0000000), wk =   0.0219780
        k(   65) = (   0.1500000   0.1500000   0.0000000), wk =   0.0219780
        k(   66) = (   0.1250000   0.1250000   0.0000000), wk =   0.0219780
        k(   67) = (   0.1000000   0.1000000   0.0000000), wk =   0.0219780
        k(   68) = (   0.0750000   0.0750000   0.0000000), wk =   0.0219780
        k(   69) = (   0.0500000   0.0500000   0.0000000), wk =   0.0219780
        k(   70) = (   0.0250000   0.0250000   0.0000000), wk =   0.0219780
        k(   71) = (   0.0000000   0.0000000   0.0000000), wk =   0.0219780
        k(   72) = (   0.0250000   0.0250000   0.0250000), wk =   0.0219780
        k(   73) = (   0.0500000   0.0500000   0.0500000), wk =   0.0219780
        k(   74) = (   0.0750000   0.0750000   0.0750000), wk =   0.0219780
        k(   75) = (   0.1000000   0.1000000   0.1000000), wk =   0.0219780
        k(   76) = (   0.1250000   0.1250000   0.1250000), wk =   0.0219780
        k(   77) = (   0.1500000   0.1500000   0.1500000), wk =   0.0219780
        k(   78) = (   0.1750000   0.1750000   0.1750000), wk =   0.0219780
        k(   79) = (   0.2000000   0.2000000   0.2000000), wk =   0.0219780
        k(   80) = (   0.2250000   0.2250000   0.2250000), wk =   0.0219780
        k(   81) = (   0.2500000   0.2500000   0.2500000), wk =   0.0219780
        k(   82) = (   0.2750000   0.2750000   0.2750000), wk =   0.0219780
        k(   83) = (   0.3000000   0.3000000   0.3000000), wk =   0.0219780
        k(   84) = (   0.3250000   0.3250000   0.3250000), wk =   0.0219780
        k(   85) = (   0.3500000   0.3500000   0.3500000), wk =   0.0219780
        k(   86) = (   0.3750000   0.3750000   0.3750000), wk =   0.0219780
        k(   87) = (   0.4000000   0.4000000   0.4000000), wk =   0.0219780
        k(   88) = (   0.4250000   0.4250000   0.4250000), wk =   0.0219780
        k(   89) = (   0.4500000   0.4500000   0.4500000), wk =   0.0219780
        k(   90) = (   0.4750000   0.4750000   0.4750000), wk =   0.0219780
        k(   91) = (   0.5000000   0.5000000   0.5000000), wk =   0.0219780

     Dense  grid:    11067 G-vectors     FFT dimensions: (  27,  27,  27)

     Smooth grid:     8385 G-vectors     FFT dimensions: (  25,  25,  25)

     Estimated max dynamical RAM per process >       4.61 MB

     Estimated total dynamical RAM >      46.10 MB

     The potential is recalculated from file :
     ./work/POSCAR.save/charge-density

     Starting wfcs are   13 randomized atomic wfcs +   13 random wfcs
     Checking if some PAW data can be deallocated... 

     Band Structure Calculation
     Davidson diagonalization with overlap

     ethr =  6.64E-07,  avg # of iterations = 18.7

     total cpu time spent up to now is        4.0 secs

     End of band structure calculation

          k = 0.0000 0.5000 0.5000 (  1056 PWs)   bands (ev):

   -25.3859  -8.8483  -8.8483  -7.5594   7.4248   9.6984  12.6321  12.6321
    14.0388  14.0388  16.9023  19.9421  21.0920  21.0920  21.2801  21.3749
    26.6105  29.1653  29.1653  32.3885  33.0123  33.0123  33.2234  33.3005
    37.7688  37.7688

          k = 0.0500 0.5000 0.5000 (  1040 PWs)   bands (ev):

   -25.3829  -8.8443  -8.8443  -7.5898   7.4462   9.8055  12.2786  12.2786
    14.4157  14.4157  16.9081  19.4576  21.1491  21.1491  21.2813  21.8330
    26.7129  29.1809  29.1809  32.2858  32.7992  32.7992  33.1083  33.3265
    38.0529  38.0543

          k = 0.1000 0.5000 0.5000 (  1036 PWs)   bands (ev):

   -25.3744  -8.8328  -8.8328  -7.6773   7.5095  10.1223  11.6438  11.6438
    15.1151  15.1151  16.9247  18.6157  21.2819  21.3231  21.3231  22.5794
    27.0348  29.2267  29.2267  31.9972  32.2793  32.2793  32.8002  33.4038
    36.2060  37.7609

          k = 0.1500 0.5000 0.5000 (  1032 PWs)   bands (ev):

   -25.3612  -8.8147  -8.8147  -7.8106   7.6124  10.6361  10.9964  10.9964
    15.8531  15.8531  16.9508  17.7447  21.2721  21.6204  21.6204  23.2525
    27.6050  29.2994  29.2994  31.5646  31.6421  31.6421  32.3806  33.5307
    34.3306  37.1547

          k = 0.2000 0.5000 0.5000 (  1032 PWs)   bands (ev):

   -25.3443  -8.7917  -8.7917  -7.9739   7.7502  10.3965  10.3965  11.3282
    16.5482  16.5482  16.9106  16.9841  21.2332  22.0456  22.0456  23.7764
    28.4246  29.3926  29.3926  31.0029  31.0099  31.0099  31.9232  32.5917
    33.7036  36.5675

          k = 0.2500 0.5000 0.5000 (  1036 PWs)   bands (ev):

   -25.3256  -8.7660  -8.7660  -8.1492   7.9157   9.8664   9.8664  12.1757
    16.1410  17.0215  17.1584  17.1584  21.1332  22.5897  22.5897  24.1579
    29.4395  29.4921  29.4921  30.1595  30.4603  30.4603  31.2534  31.4799
    33.9164  36.0675

          k = 0.3000 0.5000 0.5000 (  1032 PWs)   bands (ev):

   -25.3067  -8.7401  -8.7401  -8.3190   8.0978   9.4189   9.4189  13.1525
    15.4570  17.0595  17.6613  17.6613  20.9228  23.2161  23.2161  24.4328
    28.9331  29.5538  29.5538  30.0814  30.0814  30.5221  30.5502  31.0842
    34.1589  35.7259

          k = 0.3500 0.5000 0.5000 (  1048 PWs)   bands (ev):

   -25.2896  -8.7166  -8.7166  -8.4679   8.2802   9.0625   9.0625  14.2281
    14.8802  17.0943  18.0497  18.0497  20.5371  23.8521  23.8521  24.6310
    27.7711  29.4916  29.4916  29.9949  29.9949  30.0595  30.7579  31.6037
    34.4134  35.6641

          k = 0.4000 0.5000 0.5000 (  1056 PWs)   bands (ev):

   -25.2760  -8.6978  -8.6978  -8.5835   8.4407   8.8035   8.8035  14.4360
    15.3612  17.1223  18.3249  18.3249  19.9255  24.3968  24.3968  24.7680
    26.9056  29.4253  29.4253  29.7330  30.0974  30.0974  30.5156  32.3752
    34.6508  36.0816

          k = 0.4500 0.5000 0.5000 (  1064 PWs)   bands (ev):

   -25.2672  -8.6856  -8.6856  -8.6565   8.5530   8.6464   8.6464  14.1529
    16.4700  17.1405  18.4893  18.4893  19.1230  24.7547  24.7547  24.8497
    26.3965  29.4417  29.4417  29.5325  30.2411  30.2411  30.3667  32.7433
    34.8275  35.2552

          k = 0.5000 0.5000 0.5000 (  1064 PWs)   bands (ev):

   -25.2641  -8.6814  -8.6814  -8.6814   8.5937   8.5937   8.5937  14.0552
    17.1468  17.1468  18.5441  18.5441  18.5441  24.8770  24.8770  24.8770
    26.2320  29.4646  29.4646  29.4646  30.3164  30.3164  30.3164  32.8355
    34.8942  34.8942

          k = 0.4750 0.4750 0.4750 (  1064 PWs)   bands (ev):

   -25.2664  -8.6779  -8.6769  -8.6769   8.5895   8.6198   8.6198  14.1288
    16.8436  16.8436  18.3863  18.8481  18.8481  24.8086  24.8102  24.8102
    26.3547  29.3836  29.3836  29.6094  30.1723  30.3599  30.3599  32.7755
    35.0520  35.0526

          k = 0.4500 0.4500 0.4500 (  1052 PWs)   bands (ev):

   -25.2732  -8.6674  -8.6635  -8.6635   8.5799   8.6981   8.6981  14.3457
    16.2556  16.2556  17.9522  19.4343  19.4343  24.6012  24.6321  24.6321
    26.7143  29.0836  29.0836  29.7953  30.0106  30.5734  30.5734  32.6251
    35.4622  35.4622

          k = 0.4250 0.4250 0.4250 (  1052 PWs)   bands (ev):

   -25.2845  -8.6500  -8.6413  -8.6413   8.5720   8.8275   8.8275  14.6949
    15.6090  15.6090  17.3268  20.0617  20.0617  24.2865  24.3961  24.3961
    27.2528  28.5938  28.5938  29.2871  30.5803  30.9683  30.9683  32.4651
    35.8016  35.8017

          k = 0.4000 0.4000 0.4000 (  1040 PWs)   bands (ev):

   -25.2998  -8.6254  -8.6106  -8.6106   8.5743   9.0065   9.0065  14.9569
    14.9569  15.1607  16.5929  20.6438  20.6438  23.9169  24.1710  24.1710
    27.8915  28.0152  28.0152  28.7223  31.1328  31.4596  31.4596  32.4773
    35.5293  35.5293

          k = 0.3750 0.3750 0.3750 (  1040 PWs)   bands (ev):

   -25.3188  -8.5937  -8.5718  -8.5718   8.5933   9.2324   9.2324  14.3173
    14.3173  15.7020  15.8361  21.1005  21.1005  23.5336  24.0356  24.0356
    27.4267  27.4267  28.1434  28.5742  31.3302  31.9510  31.9510  32.9914
    35.2801  35.2801

          k = 0.3500 0.3500 0.3500 (  1039 PWs)   bands (ev):

   -25.3411  -8.5549  -8.5254  -8.5254   8.6304   9.5011   9.5011  13.7002
    13.7002  15.0233  16.3773  21.3439  21.3439  23.1669  24.0518  24.0518
    26.9052  26.9052  27.5732  29.2687  31.2492  32.3346  32.3346  33.9151
    35.2784  35.2784

          k = 0.3250 0.3250 0.3250 (  1039 PWs)   bands (ev):

   -25.3662  -8.5090  -8.4721  -8.4721   8.6804   9.8051   9.8051  13.1159
    13.1159  14.2765  17.0769  21.3518  21.3518  22.8456  24.1544  24.1544
    26.5711  26.5711  27.0247  29.9520  31.1151  32.5369  32.5369  34.9958
    35.5652  35.5652

          k = 0.3000 0.3000 0.3000 (  1039 PWs)   bands (ev):

   -25.3934  -8.4562  -8.4128  -8.4128   8.7277  10.1291  10.1291  12.5803
    12.5803  13.6015  17.7942  21.1967  21.1967  22.6075  24.1225  24.1225
    26.5054  26.5942  26.5942  30.5497  31.0475  32.5922  32.5922  35.9893
    35.9893  36.0448

          k = 0.2750 0.2750 0.2750 (  1045 PWs)   bands (ev):

   -25.4220  -8.3971  -8.3486  -8.3486   8.7439  10.4327  10.4327  12.1331
    12.1331  13.0418  18.4664  20.9621  20.9621  22.5138  23.8622  23.8622
    26.0200  26.9986  26.9986  30.6662  31.4164  32.5851  32.5851  35.8213
    36.0273  36.0273

          k = 0.2500 0.2500 0.2500 (  1030 PWs)   bands (ev):

   -25.4514  -8.3322  -8.2807  -8.2807   8.6897  10.5982  10.5982  11.8903
    11.8903  12.6467  18.9981  20.6988  20.6988  22.6576  23.4867  23.4867
    25.5716  27.6257  27.6257  30.4760  31.9363  32.5699  32.5699  34.7920
    35.2482  35.2482

          k = 0.2250 0.2250 0.2250 (  1042 PWs)   bands (ev):

   -25.4808  -8.2629  -8.2108  -8.2108   8.5307  10.4732  10.4732  12.0007
    12.0007  12.4563  19.3050  20.4328  20.4328  23.0980  23.0980  23.1200
    25.1623  28.3368  28.3368  30.0939  32.2008  32.5537  32.5537  34.2102
    34.2102  34.2358

          k = 0.2000 0.2000 0.2000 (  1039 PWs)   bands (ev):

   -25.5096  -8.1905  -8.1403  -8.1403   8.2651  10.1643  10.1643  12.3526
    12.3526  12.4758  19.4001  20.1774  20.1774  22.7481  22.7481  23.8836
    24.7936  29.0094  29.0094  29.4166  32.1268  32.4407  32.4407  33.3719
    33.3719  34.4079

          k = 0.1750 0.1750 0.1750 (  1057 PWs)   bands (ev):

   -25.5369  -8.1171  -8.0714  -8.0714   7.9268   9.8182   9.8182  12.6706
    12.7911  12.7911  19.3683  19.9397  19.9397  22.4663  22.4663  24.4665
    24.8549  28.4800  29.3903  29.3903  32.0560  32.1326  32.1326  33.1354
    33.1354  34.9436

          k = 0.1500 0.1500 0.1500 (  1054 PWs)   bands (ev):

   -25.5622  -8.0449  -8.0059  -8.0059   7.5615   9.4884   9.4884  12.9909
    13.2520  13.2520  19.2835  19.7237  19.7237  22.2739  22.2739  24.1819
    25.9357  27.4450  29.0906  29.0906  32.1118  32.2912  32.2912  33.2433
    33.2433  35.5767

          k = 0.1250 0.1250 0.1250 (  1051 PWs)   bands (ev):

   -25.5847  -7.9766  -7.9459  -7.9459   7.2073   9.1943   9.1943  13.3893
    13.7014  13.7014  19.1895  19.5322  19.5322  22.1886  22.1886  23.9402
    26.2795  27.2056  28.2854  28.2854  32.2796  32.9760  32.9760  33.4690
    33.4690  36.2143

          k = 0.1000 0.1000 0.1000 (  1048 PWs)   bands (ev):

   -25.6040  -7.9152  -7.8934  -7.8934   6.8906   8.9452   8.9452  13.8228
    14.1129  14.1129  19.1107  19.3679  19.3679  22.2257  22.2257  23.7420
    25.3250  27.3380  27.3380  28.3263  32.5569  33.7440  33.7440  33.8977
    33.8977  36.7961

          k = 0.0750 0.0750 0.0750 (  1048 PWs)   bands (ev):

   -25.6195  -7.8637  -7.8503  -7.8503   6.6293   8.7467   8.7467  14.2466
    14.4619  14.4619  19.0604  19.2341  19.2341  22.3956  22.3956  23.5876
    24.4454  26.3915  26.3915  29.3946  32.9804  34.1119  34.1119  34.8731
    34.8731  37.2056

          k = 0.0500 0.0500 0.0500 (  1033 PWs)   bands (ev):

   -25.6308  -7.8245  -7.8182  -7.8182   6.4351   8.6024   8.6024  14.6104
    14.7273  14.7273  19.0424  19.1347  19.1347  22.6984  22.6984  23.4771
    23.7314  25.5067  25.5067  30.2422  33.6217  34.5149  34.5149  35.8804
    35.8804  37.0843

          k = 0.0250 0.0250 0.0250 (  1027 PWs)   bands (ev):

   -25.6377  -7.8001  -7.7984  -7.7984   6.3157   8.5149   8.5149  14.8599
    14.8929  14.8929  19.0468  19.0733  19.0733  23.1029  23.1029  23.2546
    23.4108  24.7438  24.7438  30.7531  34.4904  34.9303  34.9303  36.3096
    36.3096  36.6167

          k = 0.0000 0.0000 0.0000 (  1021 PWs)   bands (ev):

   -25.6401  -7.7917  -7.7917  -7.7917   6.2754   8.4856   8.4856  14.9491
    14.9491  14.9491  19.0525  19.0525  19.0525  23.0850  23.3887  23.3887
    23.3887  24.3373  24.3373  30.9169  35.1766  35.1766  35.1766  36.0682
    36.0682  36.0682

          k = 0.0500 0.0000 0.0000 (  1025 PWs)   bands (ev):

   -25.6370  -7.8261  -7.7889  -7.7889   6.3284   8.5002   8.5493  14.8155
    14.8155  14.9569  18.8162  19.1963  19.1963  22.6973  23.2853  23.4729
    23.4729  24.4661  25.0960  30.7157  34.4363  34.4363  35.4525  35.6374
    36.4018  36.8247

          k = 0.1000 0.0000 0.0000 (  1029 PWs)   bands (ev):

   -25.6280  -7.9245  -7.7805  -7.7805   6.4783   8.5433   8.7401  14.4731
    14.4731  14.9795  18.2587  19.5620  19.5620  21.7498  23.6291  23.7300
    23.7300  24.9559  26.2457  30.2282  33.4408  33.4408  34.2903  35.0762
    36.1643  37.7154

          k = 0.1500 0.0000 0.0000 (  1037 PWs)   bands (ev):

   -25.6140  -8.0738  -7.7675  -7.7675   6.7018   8.6121   9.0529  14.0290
    14.0290  15.0152  17.6050  20.0266  20.0266  20.8513  23.8499  24.1668
    24.1668  25.8404  27.4812  29.6315  32.4650  32.5047  32.5047  34.1791
    37.1355  38.0226

          k = 0.2000 0.0000 0.0000 (  1041 PWs)   bands (ev):

   -25.5962  -8.2556  -7.7509  -7.7509   6.9718   8.7021   9.4656  13.5640
    13.5640  15.0609  16.9963  20.0316  20.4971  20.4971  23.9732  24.7759
    24.7759  26.9264  28.7722  29.0295  30.6754  31.6730  31.6730  33.3916
    38.0583  38.2396

          k = 0.2500 0.0000 0.0000 (  1049 PWs)   bands (ev):

   -25.5763  -8.4497  -7.7325  -7.7325   7.2665   8.8066   9.9245  13.1259
    13.1259  15.1127  16.5328  19.3045  20.9274  20.9274  23.9953  25.5131
    25.5131  28.0144  28.4739  29.0584  30.1029  30.9926  30.9926  32.7867
    38.0888  38.3140

          k = 0.3000 0.0000 0.0000 (  1040 PWs)   bands (ev):

   -25.5563  -8.6368  -7.7140  -7.7140   7.5705   8.9169  10.3407  12.7426
    12.7426  15.1657  16.3138  18.6821  21.3034  21.3034  23.7951  26.2742
    26.2742  27.6630  27.9925  28.9778  30.5525  30.5525  31.4550  32.5740
    38.0986  38.3512

          k = 0.3500 0.0000 0.0000 (  1052 PWs)   bands (ev):

   -25.5381  -8.8001  -7.6972  -7.6972   7.8682   9.0218  10.6169  12.4309
    12.4309  15.2145  16.4285  18.1772  21.6203  21.6203  23.1712  26.8723
    26.8723  26.8821  27.6022  29.3243  30.5171  30.5171  32.7992  33.0721
    38.0619  38.2079

          k = 0.4000 0.0000 0.0000 (  1056 PWs)   bands (ev):

   -25.5236  -8.9263  -7.6837  -7.6837   8.1354   9.1092  10.7172  12.2018
    12.2018  15.2542  16.8889  17.8033  21.8685  21.8685  22.1571  26.6158
    27.1458  27.1458  27.3154  29.2215  31.0186  31.0186  34.0801  34.2167
    37.0240  37.0240

          k = 0.4500 0.0000 0.0000 (  1040 PWs)   bands (ev):

   -25.5143  -9.0058  -7.6751  -7.6751   8.3318   9.1676  10.7054  12.0620
    12.0620  15.2800  17.5497  17.5729  21.1022  22.0305  22.0305  26.5996
    27.1400  27.1851  27.1851  29.0178  31.8802  31.8802  35.1684  35.6396
    35.6396  35.6778

          k = 0.5000 0.0000 0.0000 (  1044 PWs)   bands (ev):

   -25.5110  -9.0330  -7.6721  -7.6721   8.4061   9.1881  10.6848  12.0149
    12.0149  15.2889  17.4949  17.9468  20.5680  22.0874  22.0874  26.6194
    27.0809  27.1750  27.1750  28.9264  32.4504  32.4504  34.9082  34.9082
    35.6836  37.0619

          k = 0.5000 0.0500 0.0000 (  1044 PWs)   bands (ev):

   -25.5080  -9.0286  -7.7043  -7.6694   8.4702   9.2441  10.4870  12.0280
    12.1592  15.1840  17.6225  17.9355  20.5824  21.8911  22.2737  26.1972
    26.7227  26.9068  28.0816  29.4291  32.2868  32.4607  34.5295  34.9619
    35.1654  37.2730

          k = 0.5000 0.1000 0.0000 (  1058 PWs)   bands (ev):

   -25.4993  -9.0159  -7.7967  -7.6615   8.6320   9.4359  10.0530  12.0666
    12.4459  14.9029  17.8963  17.9852  20.6227  21.4276  22.7987  25.3107
    25.9465  27.6441  29.0301  30.3227  31.8520  32.4909  33.8717  33.9056
    35.1271  37.3981

          k = 0.5000 0.1500 0.0000 (  1060 PWs)   bands (ev):

   -25.4857  -8.9959  -7.9372  -7.6492   8.8213   9.5500   9.8144  12.1280
    12.7427  14.5185  17.8145  18.5270  20.6786  20.8989  23.5901  24.4819
    25.2175  28.6120  29.9408  31.0430  31.2102  32.4566  32.5386  33.4879
    35.4149  37.5091

          k = 0.5000 0.2000 0.0000 (  1056 PWs)   bands (ev):

   -25.4684  -8.9706  -8.1089  -7.6336   8.9977   9.0495  10.3887  12.2081
    13.0193  14.0987  17.6709  19.1634  20.4399  20.7257  23.7244  24.5798
    24.6621  29.2870  30.5473  30.7718  31.0764  31.3572  32.6003  33.8994
    35.8371  37.6344

          k = 0.5000 0.2500 0.0000 (  1060 PWs)   bands (ev):

   -25.4491  -8.9422  -8.2927  -7.6163   8.5874   9.1632  11.1127  12.3005
    13.2749  13.6922  17.4591  19.7898  20.1221  20.7178  23.0508  24.3998
    25.7189  28.1665  30.5626  30.6262  31.4835  31.5040  32.6706  34.8839
    36.3891  37.7088

          k = 0.5000 0.3000 0.0000 (  1050 PWs)   bands (ev):

   -25.4297  -8.9135  -8.4704  -7.5988   8.1860   9.3218  11.9216  12.3973
    13.3302  13.5099  17.2098  19.9654  20.3073  20.6064  22.4736  24.5358
    26.5656  26.9753  30.0835  30.1052  32.0536  32.7430  32.8089  35.9646
    37.0257  37.3218

          k = 0.5000 0.3500 0.0000 (  1050 PWs)   bands (ev):

   -25.4121  -8.8874  -8.6259  -7.5829   7.8602   9.4678  12.4887  12.7319
    13.0328  13.7184  16.9903  19.9623  20.3983  20.6772  22.0057  24.9756
    25.0455  28.3267  29.6555  29.6903  32.4816  32.8105  34.2366  36.1047
    36.8630  37.5728

          k = 0.5000 0.4000 0.0000 (  1050 PWs)   bands (ev):

   -25.3981  -8.8665  -8.7464  -7.5703   7.6206   9.5887  12.5644  12.8126
    13.4289  13.8873  16.8727  20.1213  20.1725  20.9141  21.6598  23.4967
    25.7438  29.3391  29.4015  29.7547  32.7786  32.8661  34.7644  35.6896
    36.0942  37.4178

          k = 0.5000 0.4500 0.0000 (  1048 PWs)   bands (ev):

   -25.3890  -8.8530  -8.8223  -7.5622   7.4741   9.6697  12.6145  12.6776
    13.8858  13.9993  16.8746  20.0039  20.4976  21.0482  21.4469  22.2080
    26.3607  29.1900  29.2249  31.2313  32.9063  32.9541  33.7177  34.5135
    37.0413  37.6881

          k = 0.5000 0.5000 0.0000 (  1056 PWs)   bands (ev):

   -25.3859  -8.8483  -8.8483  -7.5594   7.4248   9.6984  12.6321  12.6321
    14.0388  14.0388  16.9023  19.9421  21.0920  21.0920  21.2801  21.3749
    26.6105  29.1653  29.1653  32.3885  33.0123  33.0123  33.2234  33.3005
    37.7688  37.7688

          k = 0.4750 0.4750 0.0000 (  1044 PWs)   bands (ev):

   -25.3874  -8.8434  -8.8425  -7.5608   7.4494   9.6839  12.6357  12.6425
    13.9885  13.9936  16.8850  19.9692  20.5988  21.1915  21.4110  21.8254
    26.4912  28.9939  29.3708  31.7580  32.4252  33.5120  33.6240  33.8134
    37.5151  37.5587

          k = 0.4500 0.4500 0.0000 (  1041 PWs)   bands (ev):

   -25.3921  -8.8286  -8.8253  -7.5650   7.5225   9.6411  12.6468  12.6735
    13.8395  13.8610  16.8464  19.9013  20.2456  21.4740  21.5182  22.4725
    26.2322  28.5613  29.8955  30.8921  31.7499  34.0634  34.4204  34.4945
    36.9386  37.0147

          k = 0.4250 0.4250 0.0000 (  1047 PWs)   bands (ev):

   -25.3998  -8.8042  -8.7970  -7.5719   7.6411   9.5723  12.6665  12.7248
    13.5993  13.6498  16.8150  19.4989  20.3502  21.6943  21.9017  23.1066
    25.9902  28.0029  30.0160  30.6083  31.0794  34.8104  35.1297  35.1683
    36.2433  36.2827

          k = 0.4000 0.4000 0.0000 (  1043 PWs)   bands (ev):

   -25.4103  -8.7701  -8.7579  -7.5813   7.7998   9.4815  12.6966  12.7960
    13.2824  13.3732  16.8135  19.1102  20.5475  21.9349  22.4326  23.6737
    25.8912  27.4091  29.1506  30.4173  31.4366  35.3623  35.4619  35.6375
    35.7997  35.8196

          k = 0.3750 0.3750 0.0000 (  1049 PWs)   bands (ev):

   -25.4233  -8.7268  -8.7090  -7.5930   7.9875   9.3768  12.7392  12.8866
    12.9084  13.0483  16.8516  18.7967  20.7442  22.2333  23.0262  24.1109
    26.0424  26.8337  28.3065  29.7654  32.3396  34.6133  34.6622  35.8464
    36.4223  36.6277

          k = 0.3500 0.3500 0.0000 (  1055 PWs)   bands (ev):

   -25.4385  -8.6745  -8.6509  -7.6068   8.1820   9.2746  12.4974  12.6970
    12.7966  12.9955  16.9299  18.5643  20.8961  22.5783  23.6320  24.4312
    26.3275  26.4605  27.4963  29.1254  33.2110  33.8563  33.8830  35.7942
    36.9305  37.4838

          k = 0.3250 0.3250 0.0000 (  1057 PWs)   bands (ev):

   -25.4556  -8.6138  -8.5849  -7.6223   8.3350   9.2118  12.0667  12.3474
    12.8709  13.1217  17.0445  18.4094  20.9770  22.9481  24.1403  24.7455
    25.9953  26.7412  27.0420  28.4994  32.8310  33.1059  34.4203  35.6000
    37.0714  37.2731

          k = 0.3000 0.3000 0.0000 (  1047 PWs)   bands (ev):

   -25.4741  -8.5457  -8.5122  -7.6391   8.3722   9.2409  11.6305  12.0377
    12.9642  13.2638  17.1908  18.3238  20.9882  23.2918  24.3127  25.1317
    26.0668  26.0911  27.6749  27.8894  32.0756  32.3486  35.3475  35.4234
    36.0957  37.3870

          k = 0.2750 0.2750 0.0000 (  1051 PWs)   bands (ev):

   -25.4935  -8.4711  -8.4344  -7.6568   8.2758   9.3417  11.1995  11.8202
    13.0777  13.4199  17.3635  18.2964  20.9544  23.4799  24.1176  25.5946
    25.6740  26.5565  27.2981  28.2622  31.4264  31.6343  35.0010  35.0793
    36.5103  37.2867

          k = 0.2500 0.2500 0.0000 (  1057 PWs)   bands (ev):

   -25.5134  -8.3914  -8.3531  -7.6750   8.0975   9.4117  10.7822  11.7578
    13.2126  13.5878  17.5575  18.3145  20.9083  23.3239  23.8008  25.6767
    26.0851  26.7285  27.1774  28.6704  31.0097  31.0265  33.9698  34.8173
    37.0543  37.4390

          k = 0.2250 0.2250 0.0000 (  1049 PWs)   bands (ev):

   -25.5333  -8.3083  -8.2701  -7.6931   7.8763   9.3848  10.3856  11.8865
    13.3689  13.7647  17.7669  18.3643  20.8814  22.8690  23.4829  26.0518
    26.1845  26.4841  27.6980  28.8170  30.5918  30.9590  33.0571  34.5745
    36.7658  37.5284

          k = 0.2000 0.2000 0.0000 (  1047 PWs)   bands (ev):

   -25.5527  -8.2238  -8.1877  -7.7109   7.6319   9.2722  10.0154  12.1803
    13.5461  13.9471  17.9851  18.4321  20.8997  22.2976  23.2041  25.6703
    26.5734  26.6141  27.8589  28.9889  30.6067  30.7680  32.6566  34.3600
    36.4670  37.2517

          k = 0.1750 0.1750 0.0000 (  1049 PWs)   bands (ev):

   -25.5711  -8.1401  -8.1077  -7.7278   7.3780   9.1198   9.6766  12.5809
    13.7422  14.1308  18.2040  18.5067  20.9835  21.7035  22.9832  25.1911
    26.2666  27.2658  27.5866  29.4396  30.0556  31.1173  33.0031  34.1818
    36.1820  37.0005

          k = 0.1500 0.1500 0.0000 (  1049 PWs)   bands (ev):

   -25.5880  -8.0598  -8.0325  -7.7435   7.1273   8.9631   9.3734  13.0370
    13.9538  14.3109  18.4142  18.5816  21.1249  21.1457  22.8325  24.7529
    25.7383  27.0935  27.9626  29.0245  30.2332  31.9079  33.6581  34.0496
    35.9240  36.7804

          k = 0.1250 0.1250 0.0000 (  1037 PWs)   bands (ev):

   -25.6031  -7.9855  -7.9643  -7.7574   6.8918   8.8208   9.1099  13.5088
    14.1752  14.4812  18.6055  18.6578  20.5822  21.3912  22.7618  24.3626
    25.1363  26.5318  28.0636  28.6740  31.0551  32.8255  33.9770  34.4036
    35.6997  36.5945

          k = 0.1000 0.1000 0.0000 (  1049 PWs)   bands (ev):

   -25.6160  -7.9201  -7.9051  -7.7694   6.6830   8.7010   8.8892  13.9619
    14.3973  14.6352  18.7408  18.7680  20.0914  21.7179  22.7775  24.0274
    24.5335  25.9637  27.1236  29.3659  31.9529  33.8077  33.9856  35.1710
    35.5132  36.4465

          k = 0.0750 0.0750 0.0000 (  1031 PWs)   bands (ev):

   -25.6263  -7.8658  -7.8568  -7.7789   6.5104   8.6069   8.7145  14.3626
    14.6067  14.7655  18.8352  18.8951  19.6704  22.1192  22.8799  23.7554
    23.9772  25.4193  26.2369  29.9922  32.8854  34.1084  34.8201  35.3666
    35.9161  36.3472

          k = 0.0500 0.0500 0.0000 (  1029 PWs)   bands (ev):

   -25.6339  -7.8253  -7.8211  -7.7860   6.3816   8.5395   8.5879  14.6780
    14.7840  14.8651  18.9353  18.9840  19.3405  22.5835  23.0572  23.5139
    23.5542  24.9234  25.4230  30.4920  33.8170  34.3845  35.2612  35.7562
    36.3885  36.4741

          k = 0.0250 0.0250 0.0000 (  1023 PWs)   bands (ev):

   -25.6385  -7.8002  -7.7991  -7.7903   6.3022   8.4991   8.5113  14.8798
    14.9055  14.9278  19.0189  19.0357  19.1269  23.0767  23.1992  23.2695
    23.4304  24.5200  24.7186  30.8095  34.6802  34.8208  35.1978  36.0547
    36.3476  36.5573

          k = 0.0000 0.0000 0.0000 (  1021 PWs)   bands (ev):

   -25.6401  -7.7917  -7.7917  -7.7917   6.2754   8.4856   8.4856  14.9491
    14.9491  14.9491  19.0525  19.0525  19.0525  23.0850  23.3887  23.3887
    23.3887  24.3373  24.3373  30.9169  35.1766  35.1766  35.1766  36.0682
    36.0682  36.0682

          k = 0.0250 0.0250 0.0250 (  1027 PWs)   bands (ev):

   -25.6377  -7.8001  -7.7984  -7.7984   6.3157   8.5149   8.5149  14.8599
    14.8929  14.8929  19.0468  19.0733  19.0733  23.1029  23.1029  23.2546
    23.4108  24.7438  24.7438  30.7531  34.4904  34.9303  34.9303  36.3096
    36.3096  36.6167

          k = 0.0500 0.0500 0.0500 (  1033 PWs)   bands (ev):

   -25.6308  -7.8245  -7.8182  -7.8182   6.4351   8.6024   8.6024  14.6104
    14.7273  14.7273  19.0424  19.1347  19.1347  22.6984  22.6984  23.4771
    23.7314  25.5067  25.5067  30.2422  33.6217  34.5149  34.5149  35.8804
    35.8804  37.0843

          k = 0.0750 0.0750 0.0750 (  1048 PWs)   bands (ev):

   -25.6195  -7.8637  -7.8503  -7.8503   6.6293   8.7467   8.7467  14.2466
    14.4619  14.4619  19.0604  19.2341  19.2341  22.3956  22.3956  23.5876
    24.4454  26.3915  26.3915  29.3946  32.9804  34.1119  34.1119  34.8731
    34.8731  37.2056

          k = 0.1000 0.1000 0.1000 (  1048 PWs)   bands (ev):

   -25.6040  -7.9152  -7.8934  -7.8934   6.8906   8.9452   8.9452  13.8228
    14.1129  14.1129  19.1107  19.3679  19.3679  22.2257  22.2257  23.7420
    25.3250  27.3380  27.3380  28.3263  32.5569  33.7440  33.7440  33.8977
    33.8977  36.7961

          k = 0.1250 0.1250 0.1250 (  1051 PWs)   bands (ev):

   -25.5847  -7.9766  -7.9459  -7.9459   7.2073   9.1943   9.1943  13.3893
    13.7014  13.7014  19.1895  19.5322  19.5322  22.1886  22.1886  23.9402
    26.2795  27.2056  28.2854  28.2854  32.2796  32.9760  32.9760  33.4690
    33.4690  36.2143

          k = 0.1500 0.1500 0.1500 (  1054 PWs)   bands (ev):

   -25.5622  -8.0449  -8.0059  -8.0059   7.5615   9.4884   9.4884  12.9909
    13.2520  13.2520  19.2835  19.7237  19.7237  22.2739  22.2739  24.1819
    25.9357  27.4450  29.0906  29.0906  32.1118  32.2912  32.2912  33.2433
    33.2433  35.5767

          k = 0.1750 0.1750 0.1750 (  1057 PWs)   bands (ev):

   -25.5369  -8.1171  -8.0714  -8.0714   7.9268   9.8182   9.8182  12.6706
    12.7911  12.7911  19.3683  19.9397  19.9397  22.4663  22.4663  24.4665
    24.8549  28.4800  29.3903  29.3903  32.0560  32.1326  32.1326  33.1354
    33.1354  34.9436

          k = 0.2000 0.2000 0.2000 (  1039 PWs)   bands (ev):

   -25.5096  -8.1905  -8.1403  -8.1403   8.2651  10.1643  10.1643  12.3526
    12.3526  12.4758  19.4001  20.1774  20.1774  22.7481  22.7481  23.8836
    24.7936  29.0094  29.0094  29.4166  32.1268  32.4407  32.4407  33.3719
    33.3719  34.4079

          k = 0.2250 0.2250 0.2250 (  1042 PWs)   bands (ev):

   -25.4808  -8.2629  -8.2108  -8.2108   8.5307  10.4732  10.4732  12.0007
    12.0007  12.4563  19.3050  20.4328  20.4328  23.0980  23.0980  23.1200
    25.1623  28.3368  28.3368  30.0939  32.2008  32.5537  32.5537  34.2102
    34.2102  34.2358

          k = 0.2500 0.2500 0.2500 (  1030 PWs)   bands (ev):

   -25.4514  -8.3322  -8.2807  -8.2807   8.6897  10.5982  10.5982  11.8903
    11.8903  12.6467  18.9981  20.6988  20.6988  22.6576  23.4867  23.4867
    25.5716  27.6257  27.6257  30.4760  31.9363  32.5699  32.5699  34.7920
    35.2482  35.2482

          k = 0.2750 0.2750 0.2750 (  1045 PWs)   bands (ev):

   -25.4220  -8.3971  -8.3486  -8.3486   8.7439  10.4327  10.4327  12.1331
    12.1331  13.0418  18.4664  20.9621  20.9621  22.5138  23.8622  23.8622
    26.0200  26.9986  26.9986  30.6662  31.4164  32.5851  32.5851  35.8213
    36.0273  36.0273

          k = 0.3000 0.3000 0.3000 (  1039 PWs)   bands (ev):

   -25.3934  -8.4562  -8.4128  -8.4128   8.7277  10.1291  10.1291  12.5803
    12.5803  13.6015  17.7942  21.1967  21.1967  22.6075  24.1225  24.1225
    26.5054  26.5942  26.5942  30.5497  31.0475  32.5922  32.5922  35.9893
    35.9893  36.0448

          k = 0.3250 0.3250 0.3250 (  1039 PWs)   bands (ev):

   -25.3662  -8.5090  -8.4721  -8.4721   8.6804   9.8051   9.8051  13.1159
    13.1159  14.2765  17.0769  21.3518  21.3518  22.8456  24.1544  24.1544
    26.5711  26.5711  27.0247  29.9520  31.1151  32.5369  32.5369  34.9958
    35.5652  35.5652

          k = 0.3500 0.3500 0.3500 (  1039 PWs)   bands (ev):

   -25.3411  -8.5549  -8.5254  -8.5254   8.6304   9.5011   9.5011  13.7002
    13.7002  15.0233  16.3773  21.3439  21.3439  23.1669  24.0518  24.0518
    26.9052  26.9052  27.5732  29.2687  31.2492  32.3346  32.3346  33.9151
    35.2784  35.2784

          k = 0.3750 0.3750 0.3750 (  1040 PWs)   bands (ev):

   -25.3188  -8.5937  -8.5718  -8.5718   8.5933   9.2324   9.2324  14.3173
    14.3173  15.7020  15.8361  21.1005  21.1005  23.5336  24.0356  24.0356
    27.4267  27.4267  28.1434  28.5742  31.3302  31.9510  31.9510  32.9914
    35.2801  35.2801

          k = 0.4000 0.4000 0.4000 (  1040 PWs)   bands (ev):

   -25.2998  -8.6254  -8.6106  -8.6106   8.5743   9.0065   9.0065  14.9569
    14.9569  15.1607  16.5929  20.6438  20.6438  23.9169  24.1710  24.1710
    27.8916  28.0152  28.0152  28.7223  31.1328  31.4596  31.4596  32.4773
    35.5293  35.5293

          k = 0.4250 0.4250 0.4250 (  1052 PWs)   bands (ev):

   -25.2845  -8.6500  -8.6413  -8.6413   8.5720   8.8275   8.8275  14.6949
    15.6090  15.6090  17.3268  20.0617  20.0617  24.2865  24.3961  24.3961
    27.2528  28.5938  28.5938  29.2871  30.5803  30.9683  30.9683  32.4651
    35.8016  35.8016

          k = 0.4500 0.4500 0.4500 (  1052 PWs)   bands (ev):

   -25.2732  -8.6674  -8.6635  -8.6635   8.5799   8.6981   8.6981  14.3457
    16.2556  16.2556  17.9522  19.4343  19.4343  24.6012  24.6321  24.6321
    26.7143  29.0836  29.0836  29.7953  30.0106  30.5734  30.5734  32.6251
    35.4622  35.4622

          k = 0.4750 0.4750 0.4750 (  1064 PWs)   bands (ev):

   -25.2664  -8.6779  -8.6769  -8.6769   8.5895   8.6198   8.6198  14.1288
    16.8436  16.8436  18.3863  18.8481  18.8481  24.8086  24.8102  24.8102
    26.3547  29.3836  29.3836  29.6094  30.1723  30.3599  30.3599  32.7755
    35.0520  35.0520

          k = 0.5000 0.5000 0.5000 (  1064 PWs)   bands (ev):

   -25.2641  -8.6814  -8.6814  -8.6814   8.5937   8.5937   8.5937  14.0552
    17.1468  17.1468  18.5441  18.5441  18.5441  24.8770  24.8770  24.8770
    26.2320  29.4646  29.4646  29.4646  30.3164  30.3164  30.3164  32.8355
    34.8942  34.8942

     Writing all to output data dir ./work/POSCAR.save/

     init_run     :      0.16s CPU      0.19s WALL (       1 calls)
     electrons    :      3.20s CPU      3.51s WALL (       1 calls)

     Called by init_run:
     wfcinit      :      0.00s CPU      0.01s WALL (       1 calls)
     potinit      :      0.08s CPU      0.09s WALL (       1 calls)
     hinit0       :      0.08s CPU      0.08s WALL (       1 calls)

     Called by electrons:
     c_bands      :      3.20s CPU      3.50s WALL (       1 calls)
     v_of_rho     :      0.00s CPU      0.00s WALL (       1 calls)
     newd         :      0.00s CPU      0.00s WALL (       1 calls)
     PAW_pot      :      0.04s CPU      0.04s WALL (       1 calls)

     Called by c_bands:
     init_us_2    :      0.00s CPU      0.00s WALL (      91 calls)
     init_us_2:cp :      0.00s CPU      0.00s WALL (      91 calls)
     cegterg      :      2.98s CPU      3.04s WALL (     120 calls)

     Called by *egterg:
     cdiaghg      :      1.11s CPU      1.13s WALL (    1792 calls)
     h_psi        :      1.50s CPU      1.53s WALL (    1912 calls)
     s_psi        :      0.02s CPU      0.02s WALL (    1912 calls)
     g_psi        :      0.02s CPU      0.02s WALL (    1701 calls)

     Called by h_psi:
     h_psi:calbec :      0.08s CPU      0.08s WALL (    1912 calls)
     vloc_psi     :      1.39s CPU      1.42s WALL (    1912 calls)
     add_vuspsi   :      0.02s CPU      0.03s WALL (    1912 calls)

     General routines
     calbec       :      0.07s CPU      0.08s WALL (    1912 calls)
     fft          :      0.05s CPU      0.05s WALL (      13 calls)
     ffts         :      0.03s CPU      0.03s WALL (       1 calls)
     fftw         :      1.26s CPU      1.30s WALL (   52112 calls)
     interpolate  :      0.03s CPU      0.03s WALL (       1 calls)
     davcio       :      0.00s CPU      0.19s WALL (     182 calls)

     Parallel routines

     PWSCF        :      3.70s CPU      4.94s WALL


   This run was terminated on:  22:41:56  15May2024            

=------------------------------------------------------------------------------=
   JOB DONE.
=------------------------------------------------------------------------------=
