
     Program PWSCF v.7.1 starts on 15May2024 at 22:41:48 

     This program is part of the open-source Quantum ESPRESSO suite
     for quantum simulation of materials; please cite
         "P. Giannozzi et al., J. Phys.:Condens. Matter 21 395502 (2009);
         "P. Giannozzi et al., J. Phys.:Condens. Matter 29 465901 (2017);
         "P. Giannozzi et al., J. Chem. Phys. 152 154105 (2020);
          URL http://www.quantum-espresso.org", 
     in publications or presentations arising from this work. More details at
     http://www.quantum-espresso.org/quote

     Parallel version (MPI & OpenMP), running on      10 processor cores
     Number of MPI processes:                10
     Threads/MPI process:                     1

     MPI processes distributed on     1 nodes
     14549 MiB available memory on the printing compute node when the environment starts

     Waiting for input...
     Reading input from standard input

     Current dimensions of program PWSCF are:
     Max number of different atomic species (ntypx) = 10
     Max number of k-points (npk) =  40000
     Max angular momentum in pseudopotentials (lmaxx) =  4
     file Ce.pbe-spdn-kjpaw_psl.1.0.0.UPF: wavefunction(s)  5D renormalized
     Message from routine setup:
     using ibrav=0 with symmetry is DISCOURAGED, use correct ibrav instead

     R & G space division:  proc/nbgrp/npool/nimage =      10
     Subspace diagonalization in iterative solution of the eigenvalue problem:
     a serial algorithm will be used


     Parallelization info
     --------------------
     sticks:   dense  smooth     PW     G-vecs:    dense   smooth      PW
     Min          59      49     14                 1105      837     140
     Max          60      50     15                 1110      840     143
     Sum         593     497    149                11067     8385    1419

     Using Slab Decomposition



     bravais-lattice index     =            0
     lattice parameter (alat)  =       6.5064  a.u.
     unit-cell volume          =     275.4349 (a.u.)^3
     number of atoms/cell      =            1
     number of atomic types    =            1
     number of electrons       =        11.00
     number of Kohn-Sham states=           26
     kinetic-energy cutoff     =      37.0000  Ry
     charge density cutoff     =     179.0000  Ry
     scf convergence threshold =      7.3E-05
     mixing beta               =       0.7000
     number of iterations used =            8  plain     mixing
     Exchange-correlation= SLA  PW   PBX  PBC
                           (   1   4   3   4   0   0   0)

     celldm(1)=   6.506384  celldm(2)=   0.000000  celldm(3)=   0.000000
     celldm(4)=   0.000000  celldm(5)=   0.000000  celldm(6)=   0.000000

     crystal axes: (cart. coord. in units of alat)
               a(1) = (   1.000000   0.000000   0.000000 )  
               a(2) = (   0.000000   1.000000   0.000000 )  
               a(3) = (   0.000000   0.000000   1.000000 )  

     reciprocal axes: (cart. coord. in units 2 pi/alat)
               b(1) = (  1.000000  0.000000  0.000000 )  
               b(2) = (  0.000000  1.000000  0.000000 )  
               b(3) = (  0.000000  0.000000  1.000000 )  


     PseudoPot. # 1 for Ce read from file:
     ./../../../../pseudo/psl100_PBE/Ce.pbe-spdn-kjpaw_psl.1.0.0.UPF
     MD5 check sum: 1a25380276e46fcecd5a173acdad072c
     Pseudo is Projector augmented-wave + core cor, Zval = 11.0
     Generated using 'atomic' code by A. Dal Corso  v.7.2
     Shape of augmentation charge: PSQ
     Using radial grid of 1255 points,  6 beta functions with: 
                l(1) =   0
                l(2) =   0
                l(3) =   1
                l(4) =   1
                l(5) =   2
                l(6) =   2
     Q(r) pseudized with 0 coefficients 


     atomic species   valence    mass     pseudopotential
        Ce            11.00   140.11600     Ce( 1.00)

     48 Sym. Ops., with inversion, found



   Cartesian axes

     site n.     atom                  positions (alat units)
         1           Ce  tau(   1) = (   0.0000000   0.0000000   0.0000000  )

     number of k points=    35  Methfessel-Paxton smearing, width (Ry)=  0.0200
                       cart. coord. in units 2pi/alat
        k(    1) = (   0.0000000   0.0000000   0.0000000), wk =   0.0027435
        k(    2) = (   0.0000000   0.0000000   0.1111111), wk =   0.0164609
        k(    3) = (   0.0000000   0.0000000   0.2222222), wk =   0.0164609
        k(    4) = (   0.0000000   0.0000000   0.3333333), wk =   0.0164609
        k(    5) = (   0.0000000   0.0000000   0.4444444), wk =   0.0164609
        k(    6) = (   0.0000000   0.1111111   0.1111111), wk =   0.0329218
        k(    7) = (   0.0000000   0.1111111   0.2222222), wk =   0.0658436
        k(    8) = (   0.0000000   0.1111111   0.3333333), wk =   0.0658436
        k(    9) = (   0.0000000   0.1111111   0.4444444), wk =   0.0658436
        k(   10) = (   0.0000000   0.2222222   0.2222222), wk =   0.0329218
        k(   11) = (   0.0000000   0.2222222   0.3333333), wk =   0.0658436
        k(   12) = (   0.0000000   0.2222222   0.4444444), wk =   0.0658436
        k(   13) = (   0.0000000   0.3333333   0.3333333), wk =   0.0329218
        k(   14) = (   0.0000000   0.3333333   0.4444444), wk =   0.0658436
        k(   15) = (   0.0000000   0.4444444   0.4444444), wk =   0.0329218
        k(   16) = (   0.1111111   0.1111111   0.1111111), wk =   0.0219479
        k(   17) = (   0.1111111   0.1111111   0.2222222), wk =   0.0658436
        k(   18) = (   0.1111111   0.1111111   0.3333333), wk =   0.0658436
        k(   19) = (   0.1111111   0.1111111   0.4444444), wk =   0.0658436
        k(   20) = (   0.1111111   0.2222222   0.2222222), wk =   0.0658436
        k(   21) = (   0.1111111   0.2222222   0.3333333), wk =   0.1316872
        k(   22) = (   0.1111111   0.2222222   0.4444444), wk =   0.1316872
        k(   23) = (   0.1111111   0.3333333   0.3333333), wk =   0.0658436
        k(   24) = (   0.1111111   0.3333333   0.4444444), wk =   0.1316872
        k(   25) = (   0.1111111   0.4444444   0.4444444), wk =   0.0658436
        k(   26) = (   0.2222222   0.2222222   0.2222222), wk =   0.0219479
        k(   27) = (   0.2222222   0.2222222   0.3333333), wk =   0.0658436
        k(   28) = (   0.2222222   0.2222222   0.4444444), wk =   0.0658436
        k(   29) = (   0.2222222   0.3333333   0.3333333), wk =   0.0658436
        k(   30) = (   0.2222222   0.3333333   0.4444444), wk =   0.1316872
        k(   31) = (   0.2222222   0.4444444   0.4444444), wk =   0.0658436
        k(   32) = (   0.3333333   0.3333333   0.3333333), wk =   0.0219479
        k(   33) = (   0.3333333   0.3333333   0.4444444), wk =   0.0658436
        k(   34) = (   0.3333333   0.4444444   0.4444444), wk =   0.0658436
        k(   35) = (   0.4444444   0.4444444   0.4444444), wk =   0.0219479

     Dense  grid:    11067 G-vectors     FFT dimensions: (  27,  27,  27)

     Smooth grid:     8385 G-vectors     FFT dimensions: (  25,  25,  25)

     Estimated max dynamical RAM per process >       6.36 MB

     Estimated total dynamical RAM >      63.55 MB

     Initial potential from superposition of free atoms

     starting charge      10.9735, renormalised to      11.0000
     Starting wfcs are   13 randomized atomic wfcs +   13 random wfcs
     Checking if some PAW data can be deallocated... 

     total cpu time spent up to now is        0.5 secs

     per-process dynamical memory:    14.0 Mb

     Self-consistent Calculation

     iteration #  1     ecut=    37.00 Ry     beta= 0.70
     Davidson diagonalization with overlap
     ethr =  1.00E-02,  avg # of iterations =  6.9

     Threshold (ethr) on eigenvalues was too large:
     Diagonalizing with lowered threshold

     Davidson diagonalization with overlap
     ethr =  3.77E-05,  avg # of iterations =  4.4

     total cpu time spent up to now is        1.4 secs

     total energy              =    -471.69829258 Ry
     estimated scf accuracy    <       0.00430484 Ry

     iteration #  2     ecut=    37.00 Ry     beta= 0.70
     Davidson diagonalization with overlap
     ethr =  3.91E-05,  avg # of iterations =  1.5

     total cpu time spent up to now is        1.7 secs

     total energy              =    -471.69927643 Ry
     estimated scf accuracy    <       0.00028435 Ry

     iteration #  3     ecut=    37.00 Ry     beta= 0.70
     Davidson diagonalization with overlap
     ethr =  2.58E-06,  avg # of iterations =  2.6

     total cpu time spent up to now is        2.0 secs

     End of self-consistent calculation

          k = 0.0000 0.0000 0.0000 (  1021 PWs)   bands (ev):

   -25.6344  -7.7878  -7.7878  -7.7878   6.2745   8.4859   8.4859  14.9502
    14.9502  14.9502  19.0500  19.0500  19.0500  23.0902  23.3860  23.3860
    23.3860  24.3382  24.3382  30.9146  35.1735  35.1735  35.1735  36.0709
    36.0709  36.0710

          k = 0.0000 0.0000 0.1111 (  1029 PWs)   bands (ev):

   -25.6196  -7.9501  -7.7740  -7.7740   6.5217   8.5568   8.7998  14.3803
    14.3803  14.9875  18.1141  19.6584  19.6584  21.5429  23.6937  23.8091
    23.8091  25.1250  26.5141  30.0975  33.2247  33.2247  33.8930  34.8681
    36.3599  37.8486

          k = 0.0000 0.0000 0.2222 (  1037 PWs)   bands (ev):

   -25.5818  -8.3379  -7.7389  -7.7389   7.1000   8.7476   9.6689  13.3639
    13.3639  15.0847  16.7661  19.6949  20.6923  20.6923  24.0026  25.0907
    25.0907  27.4262  28.7719  29.3594  29.9244  31.3472  31.3472  33.0951
    38.0732  38.2796

          k = 0.0000 0.0000 0.3333 (  1048 PWs)   bands (ev):

   -25.5382  -8.7458  -7.6985  -7.6985   7.7700   8.9886  10.5453  12.5257
    12.5257  15.2004  16.3500  18.3301  21.5188  21.5188  23.4353  26.7051
    26.7051  27.0780  27.7180  29.2763  30.4701  30.4702  32.3545  32.8207
    38.0826  38.3163

          k = 0.0000 0.0000 0.4444 (  1048 PWs)   bands (ev):

   -25.5093  -8.9962  -7.6717  -7.6717   8.3140   9.1634  10.7096  12.0724
    12.0724  15.2793  17.4773  17.5894  21.2081  22.0141  22.0141  26.5978
    27.1503  27.1876  27.1876  29.0410  31.7788  31.7788  35.0646  35.5082
    35.7761  35.7763

          k = 0.0000 0.1111 0.1111 (  1045 PWs)   bands (ev):

   -25.6049  -7.9441  -7.9263  -7.7604   6.7710   8.7515   8.9821  13.7651
    14.2997  14.5700  18.6978  18.7024  20.3002  21.5621  22.7576  24.1667
    24.8016  26.2146  27.5359  29.0607  31.5481  33.3664  33.9699  34.8309
    35.5884  36.5095

          k = 0.0000 0.1111 0.2222 (  1042 PWs)   bands (ev):

   -25.5672  -8.3210  -7.8967  -7.7255   7.3430   8.9880   9.7750  12.7632
    13.4063  14.5864  17.2951  19.5917  20.2070  21.4294  23.9217  25.2978
    25.4772  27.6064  28.0001  29.7063  30.0055  30.2480  32.7968  34.5365
    35.0479  37.5653

          k = 0.0000 0.1111 0.3333 (  1043 PWs)   bands (ev):

   -25.5237  -8.7263  -7.8532  -7.6852   8.0004   9.2395  10.3658  12.3570
    12.5840  14.7181  16.6582  18.9096  20.3450  22.3173  24.2521  25.6879
    25.8585  27.5604  27.7563  28.9899  30.8409  31.7015  32.2817  34.2785
    35.1750  38.1891

          k = 0.0000 0.1111 0.4444 (  1052 PWs)   bands (ev):

   -25.4949  -8.9754  -7.8244  -7.6587   8.5679   9.4535  10.0552  12.1354
    12.5000  14.8116  17.4817  18.2105  20.7218  21.7534  22.8669  25.2254
    25.8435  27.7580  29.1037  30.2231  31.4200  32.0467  33.3982  34.5425
    35.9548  36.4526

          k = 0.0000 0.2222 0.2222 (  1051 PWs)   bands (ev):

   -25.5298  -8.2953  -8.2572  -7.6911   7.8494   9.3761  10.3436  11.9113
    13.3876  13.7851  17.7898  18.3714  20.8812  22.8078  23.4470  26.1045
    26.1243  26.5146  27.7391  28.8280  30.5673  30.9605  32.9761  34.5497
    36.7299  37.4994

          k = 0.0000 0.2222 0.3333 (  1048 PWs)   bands (ev):

   -25.4867  -8.6765  -8.2245  -7.6516   8.3541   9.3680  10.7540  12.2675
    12.7360  13.7923  17.0567  18.8764  20.3146  23.5246  24.1292  25.2100
    25.3742  26.4725  27.9980  29.3992  30.4999  32.5675  33.9341  35.1265
    35.6825  37.6964

          k = 0.0000 0.2222 0.4444 (  1058 PWs)   bands (ev):

   -25.4582  -8.9220  -8.1911  -7.6256   8.7497   9.1419  10.7002  12.3038
    13.0498  13.8987  17.3702  19.4706  19.8741  21.6203  23.4497  24.6206
    25.0631  28.4368  30.0204  30.4339  30.7479  32.3435  32.9709  34.3118
    36.5586  36.8956

          k = 0.0000 0.3333 0.3333 (  1057 PWs)   bands (ev):

   -25.4440  -8.6315  -8.6042  -7.6129   8.2927   9.2245  12.2118  12.4614
    12.8439  13.0777  17.0024  18.4525  20.9612  22.8225  23.9935  24.6348
    26.0735  26.8380  26.9823  28.7056  33.0805  33.3631  34.1034  35.6753
    37.1825  37.3911

          k = 0.0000 0.3333 0.4444 (  1054 PWs)   bands (ev):

   -25.4158  -8.8600  -8.5791  -7.5874   8.0036   9.3895  12.4489  12.5131
    13.1067  13.5099  16.9890  19.2924  20.6060  21.4894  22.2266  24.8511
    25.5565  27.8027  28.3694  31.0499  31.2988  33.6902  34.0557  36.0555
    36.7213  37.4036

          k = 0.0000 0.4444 0.4444 (  1045 PWs)   bands (ev):

   -25.3878  -8.8206  -8.8165  -7.5622   7.5442   9.6279  12.6501  12.6829
    13.7930  13.8197  16.8396  19.8249  20.2494  21.5494  21.5577  22.6156
    26.1728  28.4424  30.0402  30.6952  31.6001  34.2147  34.5882  34.6456
    36.7907  36.8660

          k = 0.1111 0.1111 0.1111 (  1045 PWs)   bands (ev):

   -25.5902  -7.9376  -7.9118  -7.9118   7.0247   9.0504   9.0504  13.6286
    13.9366  13.9366  19.1436  19.4358  19.4358  22.1918  22.1918  23.8221
    25.7529  27.7639  27.7639  27.8191  32.4196  33.4536  33.4536  33.6329
    33.6329  36.5506

          k = 0.1111 0.1111 0.2222 (  1051 PWs)   bands (ev):

   -25.5526  -8.3042  -7.8899  -7.8746   7.5946   9.2368   9.8604  12.8169
    12.8317  14.0093  17.9380  20.0247  20.3061  21.1423  23.7422  24.7806
    26.0777  26.7730  28.8065  30.0243  30.5037  31.2603  31.8495  33.8514
    35.7108  36.2221

          k = 0.1111 0.1111 0.3333 (  1051 PWs)   bands (ev):

   -25.5092  -8.7071  -7.8463  -7.8318   8.2442   9.4837  10.2910  11.9111
    12.8106  14.1728  17.1397  19.3390  20.6098  21.8774  24.1310  24.8629
    26.4995  26.8252  28.4354  30.0703  30.2209  32.0956  32.3304  35.0961
    35.2895  36.2979

          k = 0.1111 0.1111 0.4444 (  1056 PWs)   bands (ev):

   -25.4806  -8.9548  -7.8174  -7.8035   8.8765   9.6811   9.8416  11.3867
    13.3803  14.2910  17.6311  18.6845  20.7986  22.1819  22.4110  23.5819
    27.4243  28.1358  28.8438  30.6409  30.9608  32.6921  32.9429  34.6917
    34.8619  35.9705

          k = 0.1111 0.2222 0.2222 (  1054 PWs)   bands (ev):

   -25.5153  -8.2787  -8.2409  -7.8450   8.0968   9.6490  10.3791  11.9698
    12.9134  13.1103  18.7214  18.9293  21.0470  22.1365  23.4576  24.7110
    25.3457  27.9573  28.1247  30.0471  30.7137  31.5490  33.0760  33.8080
    34.7582  35.8279

          k = 0.1111 0.2222 0.3333 (  1045 PWs)   bands (ev):

   -25.4723  -8.6578  -8.2085  -7.8026   8.5524   9.6704  10.7636  11.6301
    13.0311  13.2307  17.7838  19.4815  20.5609  22.3067  23.8814  24.9627
    25.8109  27.0729  27.7515  29.7097  31.2020  32.5945  33.6302  35.1651
    35.7830  36.5987

          k = 0.1111 0.2222 0.4444 (  1046 PWs)   bands (ev):

   -25.4439  -8.9019  -8.1754  -7.7746   8.8339   9.5538  10.7486  11.1936
    13.3691  14.1343  17.7352  19.9474  20.0165  21.3520  22.7468  24.2522
    26.3231  28.6545  29.5177  29.9933  31.5423  32.1203  32.7935  34.8759
    35.4702  35.9239

          k = 0.1111 0.3333 0.3333 (  1045 PWs)   bands (ev):

   -25.4298  -8.6130  -8.5862  -7.7612   8.3875   9.6445  11.6408  11.6832
    13.0783  13.3928  17.8805  18.7897  20.6225  22.3630  24.1008  25.5238
    26.1434  26.2442  27.6184  27.9795  33.4249  34.3554  34.4721  34.9843
    35.5815  35.9302

          k = 0.1111 0.3333 0.4444 (  1048 PWs)   bands (ev):

   -25.4017  -8.8406  -8.5613  -7.7338   8.0939   9.8538  11.3591  11.7882
    13.3523  14.6411  17.5509  19.1300  20.1794  21.5190  22.8421  25.2665
    25.9060  27.3558  28.5132  30.3289  31.3888  33.2656  34.6955  35.6005
    36.0633  36.8618

          k = 0.1111 0.4444 0.4444 (  1044 PWs)   bands (ev):

   -25.3738  -8.8016  -8.7976  -7.7069   7.6463  10.1278  11.5290  11.5361
    14.8209  14.9861  17.1467  18.6001  20.3295  21.7888  22.5382  22.8970
    26.7530  28.5246  30.0759  30.1484  30.8875  33.8309  33.9450  34.3309
    35.7611  37.3577

          k = 0.2222 0.2222 0.2222 (  1039 PWs)   bands (ev):

   -25.4783  -8.2513  -8.1992  -8.1992   8.5058  10.4444  10.4444  12.0316
    12.0316  12.4475  19.3277  20.4039  20.4039  23.0544  23.0544  23.1895
    25.1168  28.4173  28.4173  30.0355  32.2052  32.5496  32.5496  34.0989
    34.0989  34.2236

          k = 0.2222 0.2222 0.3333 (  1047 PWs)   bands (ev):

   -25.4357  -8.6097  -8.1821  -8.1511   8.7384  10.3773  10.5990  11.3491
    12.4210  13.3550  18.6440  19.8520  21.2153  22.2556  22.8984  25.0507
    26.0454  26.2596  28.5620  29.9992  31.2909  32.2539  34.0612  34.9633
    35.8115  35.9569

          k = 0.2222 0.2222 0.4444 (  1045 PWs)   bands (ev):

   -25.4076  -8.8505  -8.1493  -8.1192   8.7937  10.1563  10.4228  11.1963
    12.6349  15.1441  18.1694  19.1065  20.9584  22.0825  22.9090  23.4117
    27.7781  28.4379  28.4591  29.8937  31.1578  32.4402  32.8167  33.9373
    34.2154  37.8970

          k = 0.2222 0.3333 0.3333 (  1041 PWs)   bands (ev):

   -25.3935  -8.5660  -8.5402  -8.1182   8.5826  10.0949  10.5801  11.6260
    13.1728  13.8834  18.0588  19.6596  21.5917  22.1670  24.3270  24.4544
    26.2874  26.8618  27.0428  29.3693  31.7157  32.8984  34.1200  34.6390
    36.1666  36.3040

          k = 0.2222 0.3333 0.4444 (  1046 PWs)   bands (ev):

   -25.3657  -8.7908  -8.5158  -8.0868   8.3289   9.9931  10.4132  11.6676
    13.6085  15.7680  17.5061  18.6797  21.5282  22.1283  23.2994  24.4376
    26.8691  27.6981  28.9459  29.4308  31.4449  31.9706  32.1215  34.6064
    35.5213  36.9915

          k = 0.2222 0.4444 0.4444 (  1040 PWs)   bands (ev):

   -25.3380  -8.7530  -8.7491  -8.0560   7.9308  10.1159  10.2035  11.6784
    15.6309  16.2724  16.7955  18.0860  21.1908  22.5357  22.6970  23.8698
    28.4919  28.7330  28.9757  29.7065  30.4587  31.7402  32.5730  32.7261
    34.6537  35.9776

          k = 0.3333 0.3333 0.3333 (  1045 PWs)   bands (ev):

   -25.3518  -8.5215  -8.4870  -8.4870   8.6624   9.6995   9.6995  13.3072
    13.3072  14.5183  16.8410  21.3727  21.3727  22.9466  24.1234  24.1234
    26.6501  26.6501  27.2024  29.7265  31.1602  32.4899  32.4899  34.6262
    35.4417  35.4418

          k = 0.3333 0.3333 0.4444 (  1041 PWs)   bands (ev):

   -25.3242  -8.7332  -8.4733  -8.4517   8.5133   9.2226   9.6645  13.4022
    14.0805  16.0575  16.5434  19.4176  22.5295  23.1919  23.4694  23.7404
    27.0449  28.3030  28.6561  29.2757  30.6646  30.9979  32.0846  33.7796
    34.1498  36.7313

          k = 0.3333 0.4444 0.4444 (  1039 PWs)   bands (ev):

   -25.2967  -8.6966  -8.6930  -8.4273   8.3158   9.1744   9.2303  13.8101
    15.2794  15.9720  17.1861  19.0570  21.2261  23.5384  23.7173  24.3566
    28.0614  28.7605  28.8612  29.2697  30.0660  31.3541  31.5874  31.6123
    35.1247  35.2710

          k = 0.4444 0.4444 0.4444 (  1052 PWs)   bands (ev):

   -25.2695  -8.6606  -8.6558  -8.6558   8.5765   8.7212   8.7212  14.4137
    16.1156  16.1156  17.8255  19.5739  19.5739  24.5418  24.5857  24.5857
    26.8194  28.9858  28.9858  29.6890  30.1256  30.6474  30.6474  32.5889
    35.5656  35.5657

     the Fermi energy is     9.4816 ev

!    total energy              =    -471.69932060 Ry
     total all-electron energy =    -17721.224049 Ry
     estimated scf accuracy    <       0.00001173 Ry
     smearing contrib. (-TS)   =       0.00004056 Ry
     internal energy E=F+TS    =    -471.69936115 Ry

     The total energy is F=E-TS. E is the sum of the following terms:
     one-electron contribution =      -9.65202391 Ry
     hartree contribution      =       9.59644945 Ry
     xc contribution           =     -73.10242643 Ry
     ewald contribution        =     -52.76556217 Ry
     one-center paw contrib.   =    -345.77579810 Ry

     convergence has been achieved in   3 iterations

     Writing all to output data dir ./work/POSCAR.save/

     init_run     :      0.21s CPU      0.23s WALL (       1 calls)
     electrons    :      1.21s CPU      1.58s WALL (       1 calls)

     Called by init_run:
     wfcinit      :      0.06s CPU      0.06s WALL (       1 calls)
     potinit      :      0.06s CPU      0.07s WALL (       1 calls)
     hinit0       :      0.08s CPU      0.08s WALL (       1 calls)

     Called by electrons:
     c_bands      :      0.98s CPU      1.30s WALL (       4 calls)
     sum_band     :      0.11s CPU      0.12s WALL (       4 calls)
     v_of_rho     :      0.00s CPU      0.00s WALL (       4 calls)
     newd         :      0.01s CPU      0.01s WALL (       4 calls)
     PAW_pot      :      0.13s CPU      0.15s WALL (       4 calls)
     mix_rho      :      0.00s CPU      0.00s WALL (       4 calls)

     Called by c_bands:
     init_us_2    :      0.01s CPU      0.01s WALL (     315 calls)
     init_us_2:cp :      0.01s CPU      0.01s WALL (     315 calls)
     cegterg      :      0.96s CPU      0.99s WALL (     140 calls)

     Called by *egterg:
     cdiaghg      :      0.30s CPU      0.32s WALL (     643 calls)
     h_psi        :      0.55s CPU      0.56s WALL (     713 calls)
     s_psi        :      0.01s CPU      0.01s WALL (     713 calls)
     g_psi        :      0.00s CPU      0.00s WALL (     538 calls)

     Called by h_psi:
     h_psi:calbec :      0.03s CPU      0.03s WALL (     713 calls)
     vloc_psi     :      0.51s CPU      0.52s WALL (     713 calls)
     add_vuspsi   :      0.01s CPU      0.01s WALL (     713 calls)

     General routines
     calbec       :      0.03s CPU      0.03s WALL (     853 calls)
     fft          :      0.06s CPU      0.06s WALL (      51 calls)
     ffts         :      0.03s CPU      0.03s WALL (       8 calls)
     fftw         :      0.54s CPU      0.56s WALL (   25490 calls)
     interpolate  :      0.03s CPU      0.03s WALL (       4 calls)

     Parallel routines

     PWSCF        :      1.60s CPU      2.53s WALL


   This run was terminated on:  22:41:51  15May2024            

=------------------------------------------------------------------------------=
   JOB DONE.
=------------------------------------------------------------------------------=
