<UPF version="2.0.1">
  <PP_INFO>
    Generated using "atomic" code by A. Dal Corso  v.7.2
    Author: ADC
    Generation date: 20Sep2023
    Pseudopotential type: USPP
    Element: Am
    Functional: PBE
    Suggested minimum cutoff for wavefunctions:  48. Ry
    Suggested minimum cutoff for charge density: 284. Ry
    The Pseudo was generated with a Scalar-Relativistic Calculation
    Local Potential by smoothing AE potential with Bessel fncs, cutoff radius:   2.1000
    Valence configuration: 
    nl pn  l   occ       Rcut    Rcut US       E pseu
    6S  1  0  2.00      1.400      1.600    -3.971175
    7S  2  0  2.00      1.400      1.600    -0.327016
    6P  2  1  6.00      1.400      1.900    -1.862012
    6D  3  2  1.00      1.500      2.300    -0.154306
    5F  4  3  6.00      1.400      1.800    -0.440470
    Generation configuration:
    6S  1  0  2.00      1.400      1.600    -3.971230
    7S  2  0  2.00      1.400      1.600    -0.327027
    6P  2  1  6.00      1.400      1.900    -1.862045
    7P  3  1  0.00      1.400      1.900     5.000000
    6D  3  2  1.00      1.500      2.300    -0.154320
    6D  3  2  0.00      1.500      2.300     4.800000
    5F  4  3  6.00      1.400      1.800    -0.440528
    5F  4  3  0.00      1.400      1.800     3.100000
    Pseudization used: troullier-martins
    <PP_INPUTFILE>
@input
title='Am',
zed=95.0,
rel=1,
config='[Rn] 6d1.0 7s2.0 7p0. 5f6.0',
iswitch=3,
dft='PBE'
/
@inputp
lpaw=.false.,
pseudotype=3,
file_pseudopw='Am.pbe-spfn-rrkjus_psl.1.0.0.UPF',
author='ADC',
lloc=-1,
rcloc=2.1,
which_augfun='PSQ',
rmatch_augfun_nc=.true.,
nlcc=.true.,
new_core_ps=.true.,
rcore=1.1,
tm=.true.
/
8
6S  1  0  2.00  0.00  1.40  1.60  0.0
7S  2  0  2.00  0.00  1.40  1.60  0.0
6P  2  1  6.00  0.00  1.40  1.90  0.0
7P  3  1  0.00  5.00  1.40  1.90  0.0
6D  3  2  1.00  0.00  1.50  2.30  0.0
6D  3  2  0.00  4.80  1.50  2.30  0.0
5F  4  3  6.00  0.00  1.40  1.80  0.0
5F  4  3  0.00  3.10  1.40  1.80  0.0
    </PP_INPUTFILE>
  </PP_INFO>
    <!-- END OF HUMAN READABLE SECTION -->
  <PP_HEADER generated="Generated using 'atomic' code by A. Dal Corso  v.7.2" author="ADC" date="20Sep2023" comment="" element="Am" pseudo_type="USPP" relativistic="scalar" is_ultrasoft="true" is_paw="false" is_coulomb="false" has_so="false" has_wfc="false" has_gipaw="false" paw_as_gipaw="false" core_correction="true" functional="PBE" z_valence="17.000000000000000" total_psenergy="-246.49738025470438" wfc_cutoff="48.480591999871983" rho_cutoff="284.35333169620975" l_max="3" l_max_rho="6" l_local="-1" mesh_size="1293" number_of_wfc="5" number_of_proj="8"/>
  <PP_MESH mesh="1293" dx="1.2500000000000001E-002" xmin="-7.0000000000000000" rmax="100.00000000000000" zmesh="95.000000000000000">
    <PP_R>
   9.598757532152802E-06   9.719495038621288E-06   9.841751235964023E-06
   9.965545226960568E-06   1.009089635467389E-05   1.021782420547273E-05
   1.034634861209199E-05   1.047648965673170E-05   1.060826767419485E-05
   1.074170325506479E-05   1.087681724892250E-05   1.101363076760441E-05
   1.115216518850116E-05   1.129244215789786E-05   1.143448359435640E-05
   1.157831169214019E-05   1.172394892468214E-05   1.187141804809613E-05
   1.202074210473271E-05   1.217194442677956E-05   1.232504863990710E-05
   1.248007866696014E-05   1.263705873169580E-05   1.279601336256858E-05
   1.295696739656296E-05   1.311994598307421E-05   1.328497458783805E-05
   1.345207899690973E-05   1.362128532069314E-05   1.379261999802063E-05
   1.396610980028412E-05   1.414178183561818E-05   1.431966355313572E-05
   1.449978274721702E-05   1.468216756185262E-05   1.486684649504086E-05
   1.505384840324078E-05   1.524320250588101E-05   1.543493838992530E-05
   1.562908601449565E-05   1.582567571555339E-05   1.602473821063928E-05
   1.622630460367316E-05   1.643040638981402E-05   1.663707546038123E-05
   1.684634410783752E-05   1.705824503083481E-05   1.727281133932343E-05
   1.749007655972562E-05   1.771007464017412E-05   1.793283995581657E-05
   1.815840731418676E-05   1.838681196064336E-05   1.861808958387706E-05
   1.885227632148705E-05   1.908940876562753E-05   1.932952396872534E-05
   1.957265944926948E-05   1.981885319767345E-05   2.006814368221133E-05
   2.032056985502852E-05   2.057617115822807E-05   2.083498753003365E-05
   2.109705941102989E-05   2.136242775048141E-05   2.163113401273115E-05
   2.190322018367926E-05   2.217872877734352E-05   2.245770284250219E-05
   2.274018596942057E-05   2.302622229666195E-05   2.331585651798439E-05
   2.360913388932425E-05   2.390610023586744E-05   2.420680195920985E-05
   2.451128604460751E-05   2.481960006831824E-05   2.513179220503551E-05
   2.544791123541583E-05   2.576800655370087E-05   2.609212817543535E-05
   2.642032674528209E-05   2.675265354493535E-05   2.708916050113368E-05
   2.742990019377367E-05   2.777492586412549E-05   2.812429142315211E-05
   2.847805145993291E-05   2.883626125019335E-05   2.919897676494198E-05
   2.956625467921592E-05   2.993815238093650E-05   3.031472797987624E-05
   3.069604031673861E-05   3.108214897235207E-05   3.147311427697958E-05
   3.186899731974542E-05   3.226985995818046E-05   3.267576482788746E-05
   3.308677535232821E-05   3.350295575273334E-05   3.392437105813712E-05
   3.435108711553841E-05   3.478317060018928E-05   3.522068902601339E-05
   3.566371075615486E-05   3.611230501366036E-05   3.656654189229530E-05
   3.702649236749609E-05   3.749222830746031E-05   3.796382248437611E-05
   3.844134858579309E-05   3.892488122613613E-05   3.941449595836400E-05
   3.991026928577482E-05   4.041227867395962E-05   4.092060256290664E-05
   4.143532037925772E-05   4.195651254871885E-05   4.248426050862693E-05
   4.301864672067438E-05   4.355975468379407E-05   4.410766894720610E-05
   4.466247512362884E-05   4.522425990265621E-05   4.579311106430284E-05
   4.636911749272006E-05   4.695236919008423E-05   4.754295729065964E-05
   4.814097407503866E-05   4.874651298456048E-05   4.935966863591169E-05
   4.998053683591029E-05   5.060921459647564E-05   5.124580014978698E-05
   5.189039296363213E-05   5.254309375694965E-05   5.320400451556646E-05
   5.387322850813318E-05   5.455087030226026E-05   5.523703578085668E-05
   5.593183215867448E-05   5.663536799906127E-05   5.734775323092342E-05
   5.806909916590286E-05   5.879951851576947E-05   5.953912541003271E-05
   6.028803541377458E-05   6.104636554570675E-05   6.181423429645529E-05
   6.259176164707467E-05   6.337906908779536E-05   6.417627963700671E-05
   6.498351786047896E-05   6.580090989082696E-05   6.662858344721839E-05
   6.746666785533035E-05   6.831529406755671E-05   6.917459468346961E-05
   7.004470397053866E-05   7.092575788511018E-05   7.181789409365081E-05
   7.272125199425823E-05   7.363597273844221E-05   7.456219925318026E-05
   7.550007626324946E-05   7.644975031384096E-05   7.741136979345722E-05
   7.838508495709830E-05   7.937104794973974E-05   8.036941283010486E-05
   8.138033559473758E-05   8.240397420237657E-05   8.344048859863678E-05
   8.449004074100169E-05   8.555279462412854E-05   8.662891630547400E-05
   8.771857393124010E-05   8.882193776264770E-05   8.993918020254049E-05
   9.107047582232247E-05   9.221600138923608E-05   9.337593589398166E-05
   9.455046057868543E-05   9.573975896521920E-05   9.694401688387516E-05
   9.816342250240344E-05   9.939816635541275E-05   1.006484413741422E-04
   1.019144429166073E-04   1.031963687981245E-04   1.044944193222212E-04
   1.058087973119325E-04   1.071397081414934E-04   1.084873597684289E-04
   1.098519627660474E-04   1.112337303563437E-04   1.126328784433150E-04
   1.140496256466963E-04   1.154841933361209E-04   1.169368056657085E-04
   1.184076896090912E-04   1.198970749948777E-04   1.214051945425644E-04
   1.229322838988995E-04   1.244785816747012E-04   1.260443294821434E-04
   1.276297719725063E-04   1.292351568744046E-04   1.308607350324957E-04
   1.325067604466737E-04   1.341734903117586E-04   1.358611850576829E-04
   1.375701083901840E-04   1.393005273320099E-04   1.410527122646403E-04
   1.428269369705362E-04   1.446234786759173E-04   1.464426180940802E-04
   1.482846394692604E-04   1.501498306210448E-04   1.520384829893461E-04
   1.539508916799392E-04   1.558873555105726E-04   1.578481770576602E-04
   1.598336627035573E-04   1.618441226844361E-04   1.638798711387588E-04
   1.659412261563630E-04   1.680285098281644E-04   1.701420482964829E-04
   1.722821718060045E-04   1.744492147553816E-04   1.766435157494838E-04
   1.788654176523061E-04   1.811152676405409E-04   1.833934172578265E-04
   1.857002224696754E-04   1.880360437190951E-04   1.904012459829086E-04
   1.927961988287808E-04   1.952212764729672E-04   1.976768578387833E-04
   2.001633266158132E-04   2.026810713198624E-04   2.052304853536631E-04
   2.078119670683451E-04   2.104259198256782E-04   2.130727520610989E-04
   2.157528773475290E-04   2.184667144599973E-04   2.212146874410740E-04
   2.239972256671282E-04   2.268147639154186E-04   2.296677424320292E-04
   2.325566070006573E-04   2.354818090122695E-04   2.384438055356313E-04
   2.414430593887256E-04   2.444800392110692E-04   2.475552195369379E-04
   2.506690808695145E-04   2.538221097559671E-04   2.570147988634740E-04
   2.602476470562042E-04   2.635211594732647E-04   2.668358476076310E-04
   2.701922293860677E-04   2.735908292500563E-04   2.770321782377401E-04
   2.805168140668999E-04   2.840452812189735E-04   2.876181310241323E-04
   2.912359217474271E-04   2.948992186760192E-04   2.986085942075063E-04
   3.023646279393625E-04   3.061679067594998E-04   3.100190249379715E-04
   3.139185842198285E-04   3.178671939191421E-04   3.218654710142115E-04
   3.259140402439673E-04   3.300135342055883E-04   3.341645934533469E-04
   3.383678665986954E-04   3.426240104116151E-04   3.469336899232354E-04
   3.512975785297482E-04   3.557163580976269E-04   3.601907190701688E-04
   3.647213605753792E-04   3.693089905352109E-04   3.739543257761786E-04
   3.786580921413649E-04   3.834210246038341E-04   3.882438673814739E-04
   3.931273740532802E-04   3.980723076771061E-04   4.030794409088912E-04
   4.081495561233896E-04   4.132834455364191E-04   4.184819113286455E-04
   4.237457657709248E-04   4.290758313512234E-04   4.344729409031321E-04
   4.399379377359991E-04   4.454716757666981E-04   4.510750196530546E-04
   4.567488449289513E-04   4.624940381411308E-04   4.683114969877213E-04
   4.742021304585034E-04   4.801668589769411E-04   4.862066145440013E-04
   4.923223408837788E-04   4.985149935909572E-04   5.047855402801208E-04
   5.111349607369471E-04   5.175642470713009E-04   5.240744038722521E-04
   5.306664483650461E-04   5.373414105700465E-04   5.441003334636781E-04
   5.509442731413934E-04   5.578742989826926E-04   5.648914938182120E-04
   5.719969540989209E-04   5.791917900674448E-04   5.864771259315410E-04
   5.938541000397616E-04   6.013238650593188E-04   6.088875881561946E-04
   6.165464511775111E-04   6.243016508361971E-04   6.321543988979783E-04
   6.401059223707155E-04   6.481574636961288E-04   6.563102809439311E-04
   6.645656480084040E-04   6.729248548074481E-04   6.813892074841321E-04
   6.899600286107828E-04   6.986386573956384E-04   7.074264498921027E-04
   7.163247792106337E-04   7.253350357332904E-04   7.344586273309860E-04
   7.436969795834697E-04   7.530515360020760E-04   7.625237582552785E-04
   7.721151263970751E-04   7.818271390982516E-04   7.916613138805519E-04
   8.016191873537929E-04   8.117023154559654E-04   8.219122736963492E-04
   8.322506574016914E-04   8.427190819654798E-04   8.533191831003498E-04
   8.640526170936715E-04   8.749210610663428E-04   8.859262132348463E-04
   8.970697931765987E-04   9.083535420986368E-04   9.197792231096883E-04
   9.313486214956560E-04   9.430635449985760E-04   9.549258240990795E-04
   9.669373123024094E-04   9.790998864280369E-04   9.914154469029125E-04
   1.003885918058417E-03   1.016513248431041E-03   1.029299411066843E-03
   1.042246403829751E-03   1.055356249713724E-03   1.068630997158854E-03
   1.082072720371436E-03   1.095683519648070E-03   1.109465521703835E-03
   1.123420880004592E-03   1.137551775103467E-03   1.151860414981568E-03
   1.166349035392989E-03   1.181019900214144E-03   1.195875301797513E-03
   1.210917561329815E-03   1.226149029194705E-03   1.241572085340027E-03
   1.257189139649680E-03   1.273002632320176E-03   1.289015034241915E-03
   1.305228847385277E-03   1.321646605191551E-03   1.338270872968796E-03
   1.355104248292676E-03   1.372149361412334E-03   1.389408875661371E-03
   1.406885487874005E-03   1.424581928806450E-03   1.442500963563605E-03
   1.460645392031108E-03   1.479018049312823E-03   1.497621806173828E-03
   1.516459569488982E-03   1.535534282697131E-03   1.554848926261019E-03
   1.574406518133001E-03   1.594210114226597E-03   1.614262808893984E-03
   1.634567735409505E-03   1.655128066459239E-03   1.675947014636741E-03
   1.697027832945020E-03   1.718373815304825E-03   1.739988297069332E-03
   1.761874655545290E-03   1.784036310520739E-03   1.806476724799356E-03
   1.829199404741528E-03   1.852207900812226E-03   1.875505808135774E-03
   1.899096767057588E-03   1.922984463712998E-03   1.947172630603203E-03
   1.971665047178495E-03   1.996465540428793E-03   2.021577985481623E-03
   2.047006306207618E-03   2.072754475833622E-03   2.098826517563528E-03
   2.125226505206900E-03   2.151958563815517E-03   2.179026870327924E-03
   2.206435654222082E-03   2.234189198176243E-03   2.262291838738112E-03
   2.290747967002453E-03   2.319562029297200E-03   2.348738527878209E-03
   2.378282021632746E-03   2.408197126791816E-03   2.438488517651462E-03
   2.469160927303135E-03   2.500219148373244E-03   2.531668033772023E-03
   2.563512497451798E-03   2.595757515174806E-03   2.628408125290671E-03
   2.661469429523647E-03   2.694946593769790E-03   2.728844848904122E-03
   2.763169491597973E-03   2.797925885146598E-03   2.833119460307198E-03
   2.868755716147502E-03   2.904840220904981E-03   2.941378612856921E-03
   2.978376601201400E-03   3.015839966949369E-03   3.053774563827951E-03
   3.092186319195083E-03   3.131081234965692E-03   3.170465388549498E-03
   3.210344933800624E-03   3.250726101979157E-03   3.291615202724778E-03
   3.333018625042667E-03   3.374942838301799E-03   3.417394393245787E-03
   3.460379923016465E-03   3.503906144190312E-03   3.547979857827942E-03
   3.592607950536778E-03   3.637797395547100E-03   3.683555253801636E-03
   3.729888675058830E-03   3.776804899010019E-03   3.824311256410647E-03
   3.872415170225709E-03   3.921124156789611E-03   3.970445826980601E-03
   4.020387887409990E-03   4.070958141626332E-03   4.122164491334727E-03
   4.174014937631505E-03   4.226517582254387E-03   4.279680628848414E-03
   4.333512384247776E-03   4.388021259773773E-03   4.443215772549111E-03
   4.499104546828703E-03   4.555696315347237E-03   4.612999920683680E-03
   4.671024316642946E-03   4.729778569654965E-03   4.789271860191302E-03
   4.849513484199643E-03   4.910512854556302E-03   4.972279502536997E-03
   5.034823079306148E-03   5.098153357424869E-03   5.162280232377961E-03
   5.227213724120104E-03   5.292963978641483E-03   5.359541269553150E-03
   5.426955999692256E-03   5.495218702747541E-03   5.564340044905239E-03
   5.634330826515687E-03   5.705201983780918E-03   5.776964590463438E-03
   5.849629859616544E-03   5.923209145336381E-03   5.997713944536032E-03
   6.073155898741966E-03   6.149546795913011E-03   6.226898572282267E-03
   6.305223314222166E-03   6.384533260132983E-03   6.464840802355136E-03
   6.546158489105477E-03   6.628499026438004E-03   6.711875280229197E-03
   6.796300278188338E-03   6.881787211893131E-03   6.968349438850887E-03
   7.056000484585680E-03   7.144754044751735E-03   7.234623987273392E-03
   7.325624354512022E-03   7.417769365460144E-03   7.511073417963188E-03
   7.605551090969186E-03   7.701217146806756E-03   7.798086533491768E-03
   7.896174387062969E-03   7.995496033947041E-03   8.096066993353379E-03
   8.197902979698999E-03   8.301019905063966E-03   8.405433881677655E-03
   8.511161224436346E-03   8.618218453452448E-03   8.726622296635794E-03
   8.836389692307448E-03   8.947537791846301E-03   9.060083962369033E-03
   9.174045789443773E-03   9.289441079837847E-03   9.406287864300165E-03
   9.524604400378524E-03   9.644409175272402E-03   9.765720908721616E-03
   9.888558555931324E-03   1.001294131053383E-02   1.013888860758760E-02
   1.026642012661403E-02   1.039555579467244E-02   1.052631578947368E-02
   1.065872054253300E-02   1.079279074236241E-02   1.092854733770343E-02
   1.106601154080026E-02   1.120520483071431E-02   1.134614895668033E-02
   1.148886594150476E-02   1.163337808500682E-02   1.177970796750296E-02
   1.192787845333501E-02   1.207791269444287E-02   1.222983413398193E-02
   1.238366650998622E-02   1.253943385907746E-02   1.269716052022085E-02
   1.285687113852811E-02   1.301859066910827E-02   1.318234438096700E-02
   1.334815786095495E-02   1.351605701776570E-02   1.368606808598412E-02
   1.385821763018549E-02   1.403253254908635E-02   1.420904007974741E-02
   1.438776780182944E-02   1.456874364190265E-02   1.475199587781025E-02
   1.493755314308693E-02   1.512544443143290E-02   1.531569910124422E-02
   1.550834688020017E-02   1.570341786990812E-02   1.590094255060709E-02
   1.610095178593031E-02   1.630347682772772E-02   1.650854932094915E-02
   1.671620130858888E-02   1.692646523669246E-02   1.713937395942643E-02
   1.735496074421188E-02   1.757325927692256E-02   1.779430366714833E-02
   1.801812845352490E-02   1.824476860913049E-02   1.847425954695051E-02
   1.870663712541093E-02   1.894193765398115E-02   1.918019789884748E-02
   1.942145508865790E-02   1.966574692033918E-02   1.991311156498705E-02
   2.016358767383049E-02   2.041721438427111E-02   2.067403132599840E-02
   2.093407862718202E-02   2.119739692074186E-02   2.146402735069701E-02
   2.173401157859461E-02   2.200739179001955E-02   2.228421070118605E-02
   2.256451156561221E-02   2.284833818087835E-02   2.313573489547056E-02
   2.342674661571020E-02   2.372141881277062E-02   2.401979752978215E-02
   2.432192938902637E-02   2.462786159922097E-02   2.493764196289623E-02
   2.525131888386419E-02   2.556894137478198E-02   2.589055906481001E-02
   2.621622220736666E-02   2.654598168798052E-02   2.687988903224134E-02
   2.721799641385102E-02   2.756035666277581E-02   2.790702327350113E-02
   2.825805041339024E-02   2.861349293114784E-02   2.897340636539060E-02
   2.933784695332475E-02   2.970687163953368E-02   3.008053808487543E-02
   3.045890467549222E-02   3.084203053193374E-02   3.122997551839441E-02
   3.162280025206771E-02   3.202056611261753E-02   3.242333525176875E-02
   3.283117060301890E-02   3.324413589147125E-02   3.366229564379236E-02
   3.408571519829435E-02   3.451446071514393E-02   3.494859918670054E-02
   3.538819844798348E-02   3.583332718727177E-02   3.628405495683660E-02
   3.674045218380886E-02   3.720259018118393E-02   3.767054115896400E-02
   3.814437823544149E-02   3.862417544862365E-02   3.911000776780110E-02
   3.960195110526226E-02   4.010008232815434E-02   4.060447927049445E-02
   4.111522074533110E-02   4.163238655705871E-02   4.215605751388767E-02
   4.268631544047027E-02   4.322324319068643E-02   4.376692466058959E-02
   4.431744480151537E-02   4.487488963335602E-02   4.543934625800047E-02
   4.601090287294481E-02   4.658964878507303E-02   4.717567442461121E-02
   4.776907135925797E-02   4.836993230849147E-02   4.897835115805756E-02
   4.959442297463942E-02   5.021824402071161E-02   5.084991176958193E-02
   5.148952492062112E-02   5.213718341468540E-02   5.279298844973224E-02
   5.345704249663244E-02   5.412944931518202E-02   5.481031397031422E-02
   5.549974284851673E-02   5.619784367445452E-02   5.690472552780176E-02
   5.762049886028637E-02   5.834527551294762E-02   5.907916873361215E-02
   5.982229319458893E-02   6.057476501058664E-02   6.133670175685768E-02
   6.210822248756861E-02   6.288944775440339E-02   6.368049962539947E-02
   6.448150170402091E-02   6.529257914847234E-02   6.611385869125438E-02
   6.694546865896663E-02   6.778753899235856E-02   6.864020126663277E-02
   6.950358871200457E-02   7.037783623451865E-02   7.126308043712919E-02
   7.215945964104403E-02   7.306711390733722E-02   7.398618505883474E-02
   7.491681670227365E-02   7.585915425074174E-02   7.681334494639828E-02
   7.777953788348053E-02   7.875788403160090E-02   7.974853625933524E-02
   8.075164935810976E-02   8.176738006638713E-02   8.279588709415675E-02
   8.383733114773453E-02   8.489187495487237E-02   8.595968329018575E-02
   8.704092300089973E-02   8.813576303291858E-02   8.924437445722506E-02
   9.036693049660943E-02   9.150360655273686E-02   9.265458023355382E-02
   9.382003138103934E-02   9.500014209930664E-02   9.619509678305609E-02
   9.740508214638831E-02   9.863028725197827E-02   9.987090354061606E-02
   1.011271248611212E-01   1.023991475006304E-01   1.036871702152693E-01
   1.049913942612077E-01   1.063120234261058E-01   1.076492640609580E-01
   1.090033251123336E-01   1.103744181550271E-01   1.117627574251159E-01
   1.131685598534353E-01   1.145920450994753E-01   1.160334355857011E-01
   1.174929565323091E-01   1.189708359924167E-01   1.204673048876960E-01
   1.219825970444569E-01   1.235169492301812E-01   1.250706011905199E-01
   1.266437956867530E-01   1.282367785337208E-01   1.298497986382344E-01
   1.314831080379665E-01   1.331369619408339E-01   1.348116187648741E-01
   1.365073401786225E-01   1.382243911420003E-01   1.399630399477136E-01
   1.417235582631759E-01   1.435062211729554E-01   1.453113072217589E-01
   1.471390984579542E-01   1.489898804776401E-01   1.508639424692731E-01
   1.527615772588518E-01   1.546830813556731E-01   1.566287549986616E-01
   1.585989022032820E-01   1.605938308090440E-01   1.626138525276003E-01
   1.646592829914544E-01   1.667304418032782E-01   1.688276525858492E-01
   1.709512430326195E-01   1.731015449589164E-01   1.752788943537910E-01
   1.774836314325163E-01   1.797161006897459E-01   1.819766509533438E-01
   1.842656354388873E-01   1.865834118048594E-01   1.889303422085332E-01
   1.913067933625586E-01   1.937131365922639E-01   1.961497478936739E-01
   1.986170079922619E-01   2.011153024024386E-01   2.036450214877875E-01
   2.062065605220634E-01   2.088003197509509E-01   2.114267044546070E-01
   2.140861250109856E-01   2.167789969599583E-01   2.195057410682467E-01
   2.222667833951645E-01   2.250625553591931E-01   2.278934938053903E-01
   2.307600410736471E-01   2.336626450678070E-01   2.366017593256487E-01
   2.395778430897550E-01   2.425913613792695E-01   2.456427850625550E-01
   2.487325909307710E-01   2.518612617723700E-01   2.550292864485366E-01
   2.582371599695724E-01   2.614853835722405E-01   2.647744647980884E-01
   2.681049175727483E-01   2.714772622862427E-01   2.748920258742947E-01
   2.783497419006611E-01   2.818509506405069E-01   2.853961991648201E-01
   2.889860414258958E-01   2.926210383438915E-01   2.963017578944701E-01
   3.000287751975507E-01   3.038026726071688E-01   3.076240398024730E-01
   3.114934738798630E-01   3.154115794462845E-01   3.193789687137049E-01
   3.233962615947678E-01   3.274640857996596E-01   3.315830769341891E-01
   3.357538785991000E-01   3.399771424906392E-01   3.442535285023808E-01
   3.485837048283401E-01   3.529683480673786E-01   3.574081433289216E-01
   3.619037843400129E-01   3.664559735537058E-01   3.710654222588267E-01
   3.757328506911148E-01   3.804589881457572E-01   3.852445730913477E-01
   3.900903532852694E-01   3.949970858905369E-01   3.999655375941032E-01
   4.049964847266541E-01   4.100907133839160E-01   4.152490195494795E-01
   4.204722092191783E-01   4.257610985270256E-01   4.311165138727348E-01
   4.365392920508507E-01   4.420302803814948E-01   4.475903368427662E-01
   4.532203302047996E-01   4.589211401655106E-01   4.646936574880556E-01
   4.705387841400090E-01   4.764574334343028E-01   4.824505301719317E-01
   4.885190107864524E-01   4.946638234903090E-01   5.008859284229863E-01
   5.071862978010402E-01   5.135659160700048E-01   5.200257800582125E-01
   5.265668991325559E-01   5.331902953561964E-01   5.398970036482705E-01
   5.466880719455947E-01   5.535645613664048E-01   5.605275463761652E-01
   5.675781149554481E-01   5.747173687699393E-01   5.819464233425735E-01
   5.892664082278332E-01   5.966784671882512E-01   6.041837583731183E-01
   6.117834544994525E-01   6.194787430352364E-01   6.272708263849578E-01
   6.351609220774953E-01   6.431502629563512E-01   6.512400973722935E-01
   6.594316893784097E-01   6.677263189276141E-01   6.761252820726521E-01
   6.846298911686002E-01   6.932414750779337E-01   7.019613793781602E-01
   7.107909665720648E-01   7.197316163006129E-01   7.287847255585120E-01
   7.379517089125037E-01   7.472339987223888E-01   7.566330453648323E-01
   7.661503174599973E-01   7.757873021010089E-01   7.855455050863254E-01
   7.954264511550176E-01   8.054316842250093E-01   8.155627676343260E-01
   8.258212843853595E-01   8.362088373922245E-01   8.467270497312138E-01
   8.573775648944015E-01   8.681620470464538E-01   8.790821812846450E-01
   8.901396739021684E-01   9.013362526547438E-01   9.126736670305780E-01
   9.241536885237360E-01   9.357781109109298E-01   9.475487505318085E-01
   9.594674465727626E-01   9.715360613542935E-01   9.837564806220184E-01
   9.961306138413069E-01   1.008660394495651E+00   1.021347780388773E+00
   1.034194753950527E+00   1.047203322546673E+00   1.060375518792517E+00
   1.073713400870523E+00   1.087219052851904E+00   1.100894585022255E+00
   1.114742134211306E+00   1.128763864126785E+00   1.142961965692522E+00
   1.157338657390775E+00   1.171896185608867E+00   1.186636824990204E+00
   1.201562878789674E+00   1.216676679233554E+00   1.231980587883915E+00
   1.247476996007614E+00   1.263168324949953E+00   1.279057026513000E+00
   1.295145583338700E+00   1.311436509296794E+00   1.327932349877602E+00
   1.344635682589779E+00   1.361549117363042E+00   1.378675296955985E+00
   1.396016897369017E+00   1.413576628262479E+00   1.431357233380054E+00
   1.449361490977460E+00   1.467592214256581E+00   1.486052251805021E+00
   1.504744488041200E+00   1.523671843665065E+00   1.542837276114434E+00
   1.562243780027122E+00   1.581894387708852E+00   1.601792169607049E+00
   1.621940234790620E+00   1.642341731435738E+00   1.662999847317763E+00
   1.683917810309334E+00   1.705098888884719E+00   1.726546392630547E+00
   1.748263672762906E+00   1.770254122651005E+00   1.792521178347380E+00
   1.815068319124783E+00   1.837899068019836E+00   1.861016992383499E+00
   1.884425704438491E+00   1.908128861843699E+00   1.932130168265684E+00
   1.956433373957414E+00   1.981042276344216E+00   2.005960720617158E+00
   2.031192600333859E+00   2.056741858026852E+00   2.082612485819639E+00
   2.108808526050440E+00   2.135334071903841E+00   2.162193268050351E+00
   2.189390311294007E+00   2.216929451228155E+00   2.244814990899432E+00
   2.273051287480148E+00   2.301642752949097E+00   2.330593854780918E+00
   2.359909116644182E+00   2.389593119108190E+00   2.419650500358725E+00
   2.450085956922761E+00   2.480904244402301E+00   2.512110178217472E+00
   2.543708634358913E+00   2.575704550149688E+00   2.608102925016740E+00
   2.640908821272048E+00   2.674127364903656E+00   2.707763746376579E+00
   2.741823221443861E+00   2.776311111967781E+00   2.811232806751391E+00
   2.846593762380558E+00   2.882399504076532E+00   2.918655626559305E+00
   2.955367794921785E+00   2.992541745514957E+00   3.030183286844246E+00
   3.068298300477054E+00   3.106892741961814E+00   3.145972641758533E+00
   3.185544106181051E+00   3.225613318351206E+00   3.266186539164909E+00
   3.307270108270465E+00   3.348870445059137E+00   3.390994049668174E+00
   3.433647503996509E+00   3.476837472733147E+00   3.520570704398579E+00
   3.564854032399237E+00   3.609694376095204E+00   3.655098741881422E+00
   3.701074224282408E+00   3.747628007060833E+00   3.794767364339976E+00
   3.842499661740304E+00   3.890832357530413E+00   3.939773003792339E+00
   3.989329247601637E+00   4.039508832222234E+00   4.090319598316303E+00
   4.141769485169436E+00   4.193866531931115E+00   4.246618878870896E+00
   4.300034768650321E+00   4.354122547610830E+00   4.408890667077940E+00
   4.464347684681733E+00   4.520502265694041E+00   4.577363184382407E+00
   4.634939325381041E+00   4.693239685079132E+00   4.752273373026479E+00
   4.812049613356937E+00   4.872577746229680E+00   4.933867229288600E+00
   4.995927639140136E+00   5.058768672849572E+00   5.122400149456286E+00
   5.186832011507966E+00   5.252074326614126E+00   5.318137289019258E+00
   5.385031221195623E+00   5.452766575456232E+00   5.521353935588005E+00
   5.590804018505485E+00   5.661127675925447E+00   5.732335896062415E+00
   5.804439805345671E+00   5.877450670157748E+00   5.951379898594792E+00
   6.026239042249178E+00   6.102039798014383E+00   6.178794009912725E+00
   6.256513670945981E+00   6.335210924969287E+00   6.414898068588717E+00
   6.495587553082565E+00   6.577291986346957E+00   6.660024134865832E+00
   6.743796925705693E+00   6.828623448535568E+00   6.914516957672208E+00
   7.001490874151177E+00   7.089558787823889E+00   7.178734459481006E+00
   7.269031823002678E+00   7.360464987535640E+00   7.453048239697888E+00
   7.546796045810946E+00   7.641723054160225E+00   7.737844097283936E+00
   7.835174194290600E+00   7.933728553205908E+00   8.033522573348964E+00
   8.134571847738421E+00   8.236892165529017E+00   8.340499514478548E+00
   8.445410083446095E+00   8.551640264921515E+00   8.659206657586763E+00
   8.768126068909567E+00   8.878415517769511E+00   8.990092237117384E+00
   9.103173676667808E+00   9.217677505625748E+00   9.333621615447464E+00
   9.451024122635983E+00   9.569903371571918E+00   9.690277937379800E+00
   9.812166628830404E+00   9.935588491279786E+00   1.006056280964503E+01
   1.018710911141765E+01   1.031524716971478E+01   1.044499700636870E+01
   1.057637889505539E+01   1.070941336446222E+01   1.084412120149572E+01
   1.098052345452952E+01   1.111864143669311E+01   1.125849672920225E+01