<UPF version="2.0.1">
  <PP_INFO>
    Generated using "atomic" code by A. Dal Corso  v.7.2
    Author: ADC
    Generation date: 20Sep2023
    Pseudopotential type: PAW
    Element: Au
    Functional:  SLA  PW   PBX  PBC
    Suggested minimum cutoff for wavefunctions:  41. Ry
    Suggested minimum cutoff for charge density: 364. Ry
    The Pseudo was generated with a Scalar-Relativistic Calculation
    Local Potential by smoothing AE potential with Bessel fncs, cutoff radius:   2.4000
    Valence configuration: 
    nl pn  l   occ       Rcut    Rcut US       E pseu
    6S  1  0  1.00      2.000      2.200    -0.423496
    6P  2  1  0.00      2.300      2.500    -0.056606
    5D  3  2 10.00      1.000      2.200    -0.505445
    Generation configuration:
    6S  1  0  1.00      2.000      2.200    -0.423494
    6S  1  0  0.00      2.000      2.200     4.400000
    6P  2  1  0.00      2.300      2.500    -0.056606
    6P  2  1  0.00      2.300      2.500     6.400000
    5D  3  2 10.00      1.000      2.200    -0.505443
    5D  3  2  0.00      1.000      2.200     0.800000
    Pseudization used: troullier-martins
    <PP_INPUTFILE>
@input
title='Au',
zed=79.,
rel=1,
config='[Xe] 4f14 6s1 6p0 5d10',
iswitch=3,
dft='PBE'
/
@inputp
lpaw=.true.,
pseudotype=3,
file_pseudopw='Au.pbe-n-kjpaw_psl.1.0.0.UPF',
author='ADC',
lloc=-1,
rcloc=2.4,
which_augfun='PSQ',
rmatch_augfun_nc=.true.,
nlcc=.true.,
new_core_ps=.true.,
rcore=1.6,
tm=.true.
/
6
6S  1  0  1.00  0.00  2.00  2.20  0.0
6S  1  0  0.00  4.40  2.00  2.20  0.0
6P  2  1  0.00  0.00  2.30  2.50  0.0
6P  2  1  0.00  6.40  2.30  2.50  0.0
5D  3  2 10.00  0.00  1.00  2.20  0.0
5D  3  2  0.00  0.80  1.00  2.20  0.0
    </PP_INPUTFILE>
  </PP_INFO>
    <!-- END OF HUMAN READABLE SECTION -->
  <PP_HEADER generated="Generated using 'atomic' code by A. Dal Corso  v.7.2" author="ADC" date="20Sep2023" comment="" element="Au" pseudo_type="PAW" relativistic="scalar" is_ultrasoft="true" is_paw="true" is_coulomb="false" has_so="false" has_wfc="true" has_gipaw="false" paw_as_gipaw="false" core_correction="true" functional=" SLA  PW   PBX  PBC" z_valence="11.000000000000000" total_psenergy="-774.90462224240957" wfc_cutoff="40.989456224306437" rho_cutoff="363.69494978000171" l_max="2" l_max_rho="4" l_local="-1" mesh_size="1279" number_of_wfc="3" number_of_proj="6"/>
  <PP_MESH mesh="1279" dx="1.2500000000000001E-002" xmin="-7.0000000000000000" rmax="100.00000000000000" zmesh="79.000000000000000">
    <PP_R>
   1.154280969056350E-05   1.168800036289902E-05   1.183501730907066E-05
   1.198388350077537E-05   1.213462219865848E-05   1.228725695594821E-05
   1.244181162213593E-05   1.259831034670267E-05   1.275677758289254E-05
   1.291723809153360E-05   1.307971694490680E-05   1.324423953066353E-05
   1.341083155579253E-05   1.357951905063667E-05   1.375032837296023E-05
   1.392328621206732E-05   1.409841959297219E-05   1.427575588062193E-05
   1.445532278417225E-05   1.463714836131719E-05   1.482126102267309E-05
   1.500768953621788E-05   1.519646303178609E-05   1.538761100562044E-05
   1.558116332498077E-05   1.577715023281075E-05   1.597560235246348E-05
   1.617655069248639E-05   1.638002665146643E-05   1.658606202293620E-05
   1.679468900034167E-05   1.700594018207249E-05   1.721984857655562E-05
   1.743644760741288E-05   1.765577111868353E-05   1.787785338011243E-05
   1.810272909250474E-05   1.833043339314805E-05   1.856100186130257E-05
   1.879447052376059E-05   1.903087586047560E-05   1.927025481026243E-05
   1.951264477656899E-05   1.975808363332066E-05   2.000660973083819E-05
   2.025826190182993E-05   2.051307946745958E-05   2.077110224349020E-05
   2.103237054650549E-05   2.129692520020938E-05   2.156480754180473E-05
   2.183605942845244E-05   2.211072324381164E-05   2.238884190466229E-05
   2.267045886761101E-05   2.295561813588121E-05   2.324436426618870E-05
   2.353674237570381E-05   2.383279814910098E-05   2.413257784569717E-05
   2.443612830667986E-05   2.474349696242617E-05   2.505473183991388E-05
   2.536988157022581E-05   2.568899539614853E-05   2.601212317986657E-05
   2.633931541075354E-05   2.667062321326119E-05   2.700609835490770E-05
   2.734579325436651E-05   2.768976098965677E-05   2.803805530643692E-05
   2.839073062640257E-05   2.874784205578996E-05   2.910944539398653E-05
   2.947559714224954E-05   2.984635451253460E-05   3.022177543643511E-05
   3.060191857423422E-05   3.098684332407067E-05   3.137660983121973E-05
   3.177127899749112E-05   3.217091249074505E-05   3.257557275452785E-05
   3.298532301782910E-05   3.340022730496103E-05   3.382035044556266E-05
   3.424575808472945E-05   3.467651669327048E-05   3.511269357809479E-05
   3.555435689272801E-05   3.600157564796161E-05   3.645441972263599E-05
   3.691295987455908E-05   3.737726775156261E-05   3.784741590269696E-05
   3.832347778956728E-05   3.880552779781194E-05   3.929364124872542E-05
   3.978789441102760E-05   4.028836451278059E-05   4.079512975345603E-05
   4.130826931615377E-05   4.182786337997445E-05   4.235399313254775E-05
   4.288674078271787E-05   4.342618957338904E-05   4.397242379453232E-05
   4.452552879635606E-05   4.508559100264215E-05   4.565269792424975E-05
   4.622693817278916E-05   4.680840147446749E-05   4.739717868410861E-05
   4.799336179934946E-05   4.859704397501473E-05   4.920831953767253E-05
   4.982728400037321E-05   5.045403407757330E-05   5.108866770024757E-05
   5.173128403119071E-05   5.238198348051186E-05   5.304086772132379E-05
   5.370803970562962E-05   5.438360368040936E-05   5.506766520390847E-05
   5.576033116213172E-05   5.646170978554432E-05   5.717191066598311E-05
   5.789104477378067E-05   5.861922447510438E-05   5.935656354951406E-05
   6.010317720774023E-05   6.085918210968589E-05   6.162469638265523E-05
   6.239983963981079E-05   6.318473299886351E-05   6.397949910099765E-05
   6.478426213003356E-05   6.559914783183196E-05   6.642428353394158E-05
   6.725979816549462E-05   6.810582227735215E-05   6.896248806250284E-05
   6.982992937671862E-05   7.070828175946961E-05   7.159768245510263E-05
   7.249827043428588E-05   7.341018641572330E-05   7.433357288814244E-05
   7.526857413255816E-05   7.621533624481720E-05   7.717400715842579E-05
   7.814473666766458E-05   7.912767645099445E-05   8.012298009475629E-05
   8.113080311716941E-05   8.215130299263148E-05   8.318463917632421E-05
   8.423097312912878E-05   8.529046834285402E-05   8.636329036578262E-05
   8.744960682853838E-05   8.854958747027862E-05   8.966340416521678E-05
   9.079123094947720E-05   9.193324404828977E-05   9.308962190352450E-05
   9.426054520157391E-05   9.544619690158577E-05   9.664676226405015E-05
   9.786242887974772E-05   9.909338669906042E-05   1.003398280616518E-04
   1.016019477265210E-04   1.028799429024331E-04   1.041740132787346E-04
   1.054843610565545E-04   1.068111909803991E-04   1.081547103701436E-04
   1.095151291534257E-04   1.108926598984485E-04   1.122875178471931E-04
   1.136999209490521E-04   1.151300898948838E-04   1.165782481514954E-04
   1.180446219965611E-04   1.195294405539774E-04   1.210329358296646E-04
   1.225553427478189E-04   1.240968991876181E-04   1.256578460203925E-04
   1.272384271472606E-04   1.288388895372388E-04   1.304594832658323E-04
   1.321004615541076E-04   1.337620808082614E-04   1.354446006596826E-04
   1.371482840055209E-04   1.388733970497657E-04   1.406202093448393E-04
   1.423889938337173E-04   1.441800268925744E-04   1.459935883739699E-04
   1.478299616505753E-04   1.496894336594508E-04   1.515722949468813E-04
   1.534788397137734E-04   1.554093658616258E-04   1.573641750390771E-04
   1.593435726890380E-04   1.613478680964186E-04   1.633773744364541E-04
   1.654324088236390E-04   1.675132923612777E-04   1.696203501916560E-04
   1.717539115468473E-04   1.739143098001537E-04   1.761018825181977E-04
   1.783169715136675E-04   1.805599228987248E-04   1.828310871390871E-04
   1.851308191087876E-04   1.874594781456253E-04   1.898174281073129E-04
   1.922050374283284E-04   1.946226791774865E-04   1.970707311162290E-04
   1.995495757576517E-04   2.020596004262737E-04   2.046011973185554E-04
   2.071747635641826E-04   2.097807012881171E-04   2.124194176734298E-04
   2.150913250249251E-04   2.177968408335618E-04   2.205363878416901E-04
   2.233103941091033E-04   2.261192930799245E-04   2.289635236503331E-04
   2.318435302371415E-04   2.347597628472390E-04   2.377126771479039E-04
   2.407027345380032E-04   2.437304022200877E-04   2.467961532733923E-04
   2.499004667277567E-04   2.530438276384738E-04   2.562267271620809E-04
   2.594496626331046E-04   2.627131376417689E-04   2.660176621126839E-04
   2.693637523845212E-04   2.727519312906933E-04   2.761827282410477E-04
   2.796566793045879E-04   2.831743272932355E-04   2.867362218466452E-04
   2.903429195180877E-04   2.939949838614123E-04   2.976929855191026E-04
   3.014375023114415E-04   3.052291193267959E-04   3.090684290130384E-04
   3.129560312701190E-04   3.168925335437994E-04   3.208785509205689E-04
   3.249147062237523E-04   3.290016301108272E-04   3.331399611719660E-04
   3.373303460298163E-04   3.415734394405378E-04   3.458699043961085E-04
   3.502204122279187E-04   3.546256427116686E-04   3.590862841735835E-04
   3.636030335979675E-04   3.681765967361073E-04   3.728076882165480E-04
   3.774970316567558E-04   3.822453597761835E-04   3.870534145107607E-04
   3.919219471288214E-04   3.968517183484923E-04   4.018434984565563E-04
   4.068980674288110E-04   4.120162150519421E-04   4.171987410469287E-04
   4.224464551940010E-04   4.277601774591716E-04   4.331407381223548E-04
   4.385889779071016E-04   4.441057481119625E-04   4.496919107435059E-04
   4.553483386510084E-04   4.610759156628384E-04   4.668755367245572E-04
   4.727481080387547E-04   4.786945472066466E-04   4.847157833714514E-04
   4.908127573635697E-04   4.969864218475926E-04   5.032377414711559E-04
   5.095676930156690E-04   5.159772655489395E-04   5.224674605797158E-04
   5.290392922141762E-04   5.356937873143838E-04   5.424319856587365E-04
   5.492549401044352E-04   5.561637167519926E-04   5.631593951118168E-04
   5.702430682728838E-04   5.774158430735368E-04   5.846788402744319E-04
   5.920331947336580E-04   5.994800555840624E-04   6.070205864128035E-04
   6.146559654431642E-04   6.223873857186529E-04   6.302160552894170E-04
   6.381431974010048E-04   6.461700506854989E-04   6.542978693550558E-04
   6.625279233978782E-04   6.708614987766557E-04   6.792998976294953E-04
   6.878444384733860E-04   6.964964564102184E-04   7.052573033353974E-04
   7.141283481490804E-04   7.231109769700670E-04   7.322065933523859E-04
   7.414166185046020E-04   7.507424915118825E-04   7.601856695608600E-04
   7.697476281673161E-04   7.794298614067372E-04   7.892338821477653E-04
   7.991612222885870E-04   8.092134329962984E-04   8.193920849492728E-04
   8.296987685825868E-04   8.401350943365271E-04   8.507026929082248E-04
   8.614032155064582E-04   8.722383341096529E-04   8.832097417271350E-04
   8.943191526636661E-04   9.055683027873066E-04   9.169589498006514E-04
   9.284928735154701E-04   9.401718761308089E-04   9.519977825145877E-04
   9.639724404887383E-04   9.760977211179330E-04   9.883755190019388E-04
   1.000807752571654E-03   1.013396364388868E-03   1.026143321449788E-03
   1.039050615492390E-03   1.052120263307627E-03   1.065354307054562E-03
   1.078754814579454E-03   1.092323879738867E-03   1.106063622726840E-03
   1.119976190406168E-03   1.134063756643857E-03   1.148328522650792E-03
   1.162772717325682E-03   1.177398597603335E-03   1.192208448807300E-03
   1.207204585006958E-03   1.222389349379100E-03   1.237765114574051E-03
   1.253334283086409E-03   1.269099287630427E-03   1.285062591520140E-03
   1.301226689054259E-03   1.317594105905907E-03   1.334167399517270E-03
   1.350949159499192E-03   1.367942008035814E-03   1.385148600294291E-03
   1.402571624839670E-03   1.420213804054984E-03   1.438077894566630E-03
   1.456166687675094E-03   1.474483009791101E-03   1.493029722877248E-03
   1.511809724895185E-03   1.530825950258439E-03   1.550081370290911E-03
   1.569578993691155E-03   1.589321867002498E-03   1.609313075089058E-03
   1.629555741617775E-03   1.650053029546477E-03   1.670808141618105E-03
   1.691824320861146E-03   1.713104851096363E-03   1.734653057449905E-03
   1.756472306872852E-03   1.778566008667319E-03   1.800937615019160E-03
   1.823590621537383E-03   1.846528567800347E-03   1.869755037908821E-03
   1.893273661046014E-03   1.917088112044642E-03   1.941202111961120E-03
   1.965619428657000E-03   1.990343877387692E-03   2.015379321398612E-03
   2.040729672528821E-03   2.066398891822259E-03   2.092390990146665E-03
   2.118710028820285E-03   2.145360120246458E-03   2.172345428556188E-03
   2.199670170258799E-03   2.227338614900778E-03   2.255355085732892E-03
   2.283723960385707E-03   2.312449671553605E-03   2.341536707687396E-03
   2.370989613695659E-03   2.400812991654878E-03   2.431011501528534E-03
   2.461589861895236E-03   2.492552850686001E-03   2.523905305930825E-03
   2.555652126514626E-03   2.587798272942710E-03   2.620348768115858E-03
   2.653308698115162E-03   2.686683212996748E-03   2.720477527596464E-03
   2.754696922344721E-03   2.789346744091569E-03   2.824432406942150E-03
   2.859959393102669E-03   2.895933253736994E-03   2.932359609834037E-03
   2.969244153086048E-03   3.006592646777951E-03   3.044410926687876E-03
   3.082704901998998E-03   3.121480556222868E-03   3.160743948134351E-03
   3.200501212718310E-03   3.240758562128229E-03   3.281522286656856E-03
   3.322798755719081E-03   3.364594418847174E-03   3.406915806698530E-03
   3.449769532076109E-03   3.493162290961686E-03   3.537100863562119E-03
   3.581592115368773E-03   3.626642998230254E-03   3.672260551438676E-03
   3.718451902829531E-03   3.765224269895452E-03   3.812584960913953E-03
   3.860541376089358E-03   3.909101008709113E-03   3.958271446314606E-03
   4.008060371886751E-03   4.058475565046467E-03   4.109524903270250E-03
   4.161216363121066E-03   4.213558021494679E-03   4.266558056881703E-03
   4.320224750645493E-03   4.374566488316133E-03   4.429591760900702E-03
   4.485309166209985E-03   4.541727410201922E-03   4.598855308341918E-03
   4.656701786980283E-03   4.715275884747000E-03   4.774586753964014E-03
   4.834643662075306E-03   4.895455993094956E-03   4.957033249073405E-03
   5.019385051582189E-03   5.082521143217301E-03   5.146451389121511E-03
   5.211185778525807E-03   5.276734426310233E-03   5.343107574584374E-03
   5.410315594287681E-03   5.478368986809969E-03   5.547278385632273E-03
   5.617054557988352E-03   5.687708406547110E-03   5.759250971116123E-03
   5.831693430366660E-03   5.905047103580363E-03   5.979323452417908E-03
   6.054534082709926E-03   6.130690746270413E-03   6.207805342732992E-03
   6.285889921410251E-03   6.364956683176467E-03   6.445017982374041E-03
   6.526086328743852E-03   6.608174389379954E-03   6.691294990708831E-03
   6.775461120493547E-03   6.860685929863129E-03   6.946982735367426E-03
   7.034365021057870E-03   7.122846440594382E-03   7.212440819378772E-03
   7.303162156715022E-03   7.395024627996658E-03   7.488042586921715E-03
   7.582230567735516E-03   7.677603287501689E-03   7.774175648401746E-03
   7.871962740063548E-03   7.970979841919119E-03   8.071242425592073E-03
   8.172766157315089E-03   8.275566900377816E-03   8.379660717605496E-03
   8.485063873868857E-03   8.591792838625505E-03   8.699864288493319E-03
   8.809295109856230E-03   8.920102401502705E-03   9.032303477297506E-03
   9.145915868886996E-03   9.260957328438504E-03   9.377445831414151E-03
   9.495399579379520E-03   9.614837002847708E-03   9.735776764159128E-03
   9.858237760397530E-03   9.982239126342744E-03   1.010780023746047E-02
   1.023494071292978E-02   1.036368041870864E-02   1.049403947063798E-02
   1.062603823758490E-02   1.075969734462530E-02   1.089503767626656E-02
   1.103208037971087E-02   1.117084686815944E-02   1.131135882415843E-02
   1.145363820298683E-02   1.159770723608707E-02   1.174358843453865E-02
   1.189130459257564E-02   1.204087879114828E-02   1.219233440152939E-02
   1.234569508896624E-02   1.250098481637825E-02   1.265822784810127E-02
   1.281744875367892E-02   1.297867241170164E-02   1.314192401369399E-02
   1.330722906805095E-02   1.347461340402353E-02   1.364410317575483E-02
   1.381572486636648E-02   1.398950529209681E-02   1.416547160649090E-02
   1.434365130464337E-02   1.452407222749459E-02   1.470676256618080E-02
   1.489175086643913E-02   1.507906603306784E-02   1.526873733444279E-02
   1.546079440709076E-02   1.565526726032006E-02   1.585218628090969E-02
   1.605158223785722E-02   1.625348628718660E-02   1.645792997681635E-02
   1.666494525148889E-02   1.687456445776207E-02   1.708682034906334E-02
   1.730174609080755E-02   1.751937526557914E-02   1.773974187837941E-02
   1.796288036193998E-02   1.818882558210285E-02   1.841761284326837E-02
   1.864927789391159E-02   1.888385693216799E-02   1.912138661148954E-02
   1.936190404637190E-02   1.960544681815359E-02   1.985205298088822E-02
   2.010176106729043E-02   2.035461009475676E-02   2.061063957146217E-02
   2.086988950253327E-02   2.113240039629928E-02   2.139821327062142E-02
   2.166736965930209E-02   2.193991161857464E-02   2.221588173367467E-02
   2.249532312549416E-02   2.277827945731910E-02   2.306479494165203E-02
   2.335491434712027E-02   2.364868300547117E-02   2.394614681865532E-02
   2.424735226599869E-02   2.455234641146525E-02   2.486117691101074E-02
   2.517389202002901E-02   2.549054060089212E-02   2.581117213058501E-02
   2.613583670843655E-02   2.646458506394756E-02   2.679746856471740E-02
   2.713453922447038E-02   2.747584971118282E-02   2.782145335531270E-02
   2.817140415813252E-02   2.852575680016720E-02   2.888456664973803E-02
   2.924788977161398E-02   2.961578293577205E-02   2.998830362626762E-02
   3.036551005021643E-02   3.074746114688973E-02   3.113421659692343E-02
   3.152583683164344E-02   3.192238304250822E-02   3.232391719066996E-02
   3.273050201665629E-02   3.314220105017344E-02   3.355907862003301E-02
   3.398119986420345E-02   3.440863073998791E-02   3.484143803433047E-02
   3.527968937425129E-02   3.572345323741392E-02   3.617279896282488E-02
   3.662779676166786E-02   3.708851772827475E-02   3.755503385123378E-02
   3.802741802463838E-02   3.850574405947678E-02   3.899008669516495E-02
   3.948052161122526E-02   3.997712543911100E-02   4.047997577418069E-02
   4.098915118782232E-02   4.150473123973004E-02   4.202679649033609E-02
   4.255542851339785E-02   4.309070990874453E-02   4.363272431518325E-02
   4.418155642356762E-02   4.473729199003131E-02   4.530001784938709E-02
   4.586982192869545E-02   4.644679326100312E-02   4.703102199925448E-02
   4.762259943037866E-02   4.822161798955269E-02   4.882817127464523E-02
   4.944235406084120E-02   5.006426231545034E-02   5.069399321290290E-02
   5.133164514993261E-02   5.197731776095204E-02   5.263111193362039E-02
   5.329312982460709E-02   5.396347487555471E-02   5.464225182924107E-02
   5.532956674594629E-02   5.602552702002453E-02   5.673024139668436E-02
   5.744381998898111E-02   5.816637429502139E-02   5.889801721538568E-02
   5.963886307076892E-02   6.038902761984307E-02   6.114862807734536E-02
   6.191778313239248E-02   6.269661296702675E-02   6.348523927499447E-02
   6.428378528076052E-02   6.509237575876319E-02   6.591113705290950E-02
   6.674019709631759E-02   6.757968543130607E-02   6.842973322963503E-02
   6.929047331300260E-02   7.016204017379778E-02   7.104456999611589E-02
   7.193820067703731E-02   7.284307184817380E-02   7.375932489748709E-02
   7.468710299137997E-02   7.562655109706737E-02   7.657781600522721E-02
   7.754104635293653E-02   7.851639264689711E-02   7.950400728695148E-02
   8.050404458989657E-02   8.151666081359575E-02   8.254201418139383E-02
   8.358026490684094E-02   8.463157521872497E-02   8.569610938642118E-02
   8.677403374555928E-02   8.786551672401310E-02   8.897072886821900E-02
   9.008984286982274E-02   9.122303359266412E-02   9.237047810009920E-02
   9.353235568266646E-02   9.470884788610236E-02   9.590013853970694E-02
   9.710641378506871E-02   9.832786210514909E-02   9.956467435373281E-02
   1.008170437852504E-01   1.020851660849731E-01   1.033692393995905E-01
   1.046694643681706E-01   1.059860441535097E-01   1.073191844738783E-01
   1.086690936351632E-01   1.100359825634177E-01   1.114200648378179E-01
   1.128215567240347E-01   1.142406772080270E-01   1.156776480302573E-01
   1.171326937203404E-01   1.186060416321258E-01   1.200979219792219E-01
   1.216085678709685E-01   1.231382153488593E-01   1.246871034234251E-01
   1.262554741115788E-01   1.278435724744311E-01   1.294516466555824E-01
   1.310799479198949E-01   1.327287306927541E-01   1.343982525998229E-01
   1.360887745072956E-01   1.378005605626601E-01   1.395338782359697E-01
   1.412889983616375E-01   1.430661951807543E-01   1.448657463839383E-01
   1.466879331547266E-01   1.485330402135090E-01   1.504013558620177E-01
   1.522931720283739E-01   1.542087843127022E-01   1.561484920333198E-01
   1.581125982735040E-01   1.601014099288509E-01   1.621152377552284E-01
   1.641543964173308E-01   1.662192045378485E-01   1.683099847472505E-01
   1.704270637341989E-01   1.725707722965920E-01   1.747414453932544E-01
   1.769394221962740E-01   1.791650461439976E-01   1.814186649946956E-01
   1.837006308808978E-01   1.860113003644170E-01   1.883510344920614E-01
   1.907201988520480E-01   1.931191636311289E-01   1.955483036724307E-01
   1.980079985340275E-01   2.004986325482460E-01   2.030205948817174E-01
   2.055742795961881E-01   2.081600857100894E-01   2.107784172608879E-01
   2.134296833682158E-01   2.161142982977957E-01   2.188326815261730E-01
   2.215852578062568E-01   2.243724572336917E-01   2.271947153140589E-01
   2.300524730309249E-01   2.329461769147478E-01   2.358762791126458E-01
   2.388432374590492E-01   2.418475155472363E-01   2.448895828017698E-01
   2.479699145518484E-01   2.510889921055738E-01   2.542473028251603E-01
   2.574453402030839E-01   2.606836039391903E-01   2.639626000187776E-01
   2.672828407916535E-01   2.706448450521942E-01   2.740491381204060E-01
   2.774962519240060E-01   2.809867250815400E-01   2.845211029865395E-01
   2.880999378927434E-01   2.917237890003874E-01   2.953932225435787E-01
   2.991088118787753E-01   3.028711375743690E-01   3.066807875014048E-01
   3.105383569254351E-01   3.144444485995297E-01   3.183996728584607E-01
   3.224046477140645E-01   3.264599989518109E-01   3.305663602285822E-01
   3.347243731716810E-01   3.389346874790906E-01   3.431979610209862E-01
   3.475148599425329E-01   3.518860587679707E-01   3.563122405060083E-01
   3.607940967565483E-01   3.653323278187473E-01   3.699276428004423E-01
   3.745807597289491E-01   3.792924056632535E-01   3.840633168076197E-01
   3.888942386266194E-01   3.937859259616160E-01   3.987391431487085E-01
   4.037546641381582E-01   4.088332726153256E-01   4.139757621231161E-01
   4.191829361859786E-01   4.244556084354553E-01   4.297946027373108E-01
   4.352007533202687E-01   4.406749049063550E-01   4.462179128428929E-01
   4.518306432361507E-01   4.575139730866701E-01   4.632687904263043E-01
   4.690959944569695E-01   4.749964956911519E-01   4.809712160941747E-01
   4.870210892282549E-01   4.931470603983800E-01   4.993500868000070E-01
   5.056311376686321E-01   5.119911944312333E-01   5.184312508596177E-01
   5.249523132257065E-01   5.315554004587596E-01   5.382415443045921E-01
   5.450117894867843E-01   5.518671938699178E-01   5.588088286248770E-01
   5.658377783962134E-01   5.729551414716300E-01   5.801620299535888E-01
   5.874595699330757E-01   5.948489016655614E-01   6.023311797491608E-01
   6.099075733050483E-01   6.175792661601324E-01   6.253474570320277E-01
   6.332133597163647E-01   6.411782032764388E-01   6.492432322352620E-01
   6.574097067700189E-01   6.656789029089677E-01   6.740521127308315E-01
   6.825306445666780E-01   6.911158232043574E-01   6.998089900954998E-01
   7.086115035651159E-01   7.175247390238465E-01   7.265500891828638E-01
   7.356889642714936E-01   7.449427922575628E-01   7.543130190705188E-01
   7.638011088273678E-01   7.734085440614351E-01   7.831368259540239E-01
   7.929874745689737E-01   8.029620290901689E-01   8.130620480620501E-01
   8.232891096331267E-01   8.336448118025784E-01   8.441307726699394E-01
   8.547486306879259E-01   8.655000449184586E-01   8.763866952918815E-01
   8.874102828694665E-01   8.985725301092017E-01   9.098751811349249E-01
   9.213200020088576E-01   9.329087810075424E-01   9.446433289012773E-01
   9.565254792370466E-01   9.685570886250112E-01   9.807400370286199E-01
   9.930762280583437E-01   1.005567589269131E+00   1.018216072461586E+00
   1.031023653986938E+00   1.043992335055862E+00   1.057124142051155E+00
   1.070421126844380E+00   1.083885367116464E+00   1.097518966682341E+00
   1.111324055819683E+00   1.125302791601751E+00   1.139457358234453E+00
   1.153789967397626E+00   1.168302858590606E+00   1.182998299482174E+00
   1.197878586264863E+00   1.212946044013758E+00   1.228203027049790E+00
   1.243651919307596E+00   1.259295134708025E+00   1.275135117535305E+00
   1.291174342818983E+00   1.307415316720644E+00   1.323860576925497E+00
   1.340512693038912E+00   1.357374266987906E+00   1.374447933427716E+00
   1.391736360153463E+00   1.409242248516992E+00   1.426968333848979E+00
   1.444917385886317E+00   1.463092209204907E+00   1.481495643657872E+00
   1.500130564819283E+00   1.518999884433488E+00   1.538106550870063E+00
   1.557453549584513E+00   1.577043903584753E+00   1.596880673903445E+00
   1.616966960076317E+00   1.637305900626443E+00   1.657900673554666E+00
   1.678754496836160E+00   1.699870628923235E+00   1.721252369254495E+00
   1.742903058770364E+00   1.764826080435129E+00   1.787024859765532E+00
   1.809502865366000E+00   1.832263609470647E+00   1.855310648492040E+00
   1.878647583576919E+00   1.902278061168873E+00   1.926205773578096E+00
   1.950434459558341E+00   1.974967904891077E+00   1.999809942977056E+00
   2.024964455435275E+00   2.050435372709473E+00   2.076226674682303E+00
   2.102342391297166E+00   2.128786603187917E+00   2.155563442316470E+00
   2.182677092618409E+00   2.210131790656765E+00   2.237931826283955E+00
   2.266081543312110E+00   2.294585340191790E+00   2.323447670699240E+00
   2.352673044632333E+00   2.382266028515196E+00   2.412231246311772E+00
   2.442573380148311E+00   2.473297171044949E+00   2.504407419656528E+00
   2.535908987022681E+00   2.567806795327404E+00   2.600105828668144E+00
   2.632811133834565E+00   2.665927821097149E+00   2.699461065005646E+00
   2.733416105197647E+00   2.767798247217268E+00   2.802612863344141E+00
   2.837865393432877E+00   2.873561345763014E+00   2.909706297899732E+00
   2.946305897565345E+00   2.983365863521755E+00   3.020891986464049E+00
   3.058890129925276E+00   3.097366231192663E+00   3.136326302235321E+00
   3.175776430643602E+00   3.215722780580345E+00   3.256171593743987E+00
   3.297129190343883E+00   3.338601970087839E+00   3.380596413182052E+00
   3.423119081343709E+00   3.466176618826210E+00   3.509775753457392E+00
   3.553923297690754E+00   3.598626149669885E+00   3.643891294306372E+00
   3.689725804371141E+00   3.736136841599649E+00   3.783131657810893E+00
   3.830717596040504E+00   3.878902091688159E+00   3.927692673679322E+00
   3.977096965641699E+00   4.027122687096432E+00   4.077777654664260E+00
   4.129069783286941E+00   4.181007087463910E+00   4.233597682504620E+00
   4.286849785796552E+00   4.340771718089170E+00   4.395371904794115E+00
   4.450658877301630E+00   4.506641274313660E+00   4.563327843193642E+00
   4.620727441333277E+00   4.678849037536573E+00   4.737701713421167E+00
   4.797294664837412E+00   4.857637203305218E+00   4.918738757468972E+00
   4.980608874570842E+00   5.043257221942480E+00   5.106693588515634E+00
   5.170927886351652E+00   5.235970152190238E+00   5.301830549017776E+00
   5.368519367655248E+00   5.436047028366252E+00   5.504424082485173E+00
   5.573661214065809E+00   5.643769241550856E+00   5.714759119462221E+00
   5.786641940112772E+00   5.859428935339488E+00   5.933131478258443E+00
   6.007761085041936E+00   6.083329416717840E+00   6.159848280991737E+00
   6.237329634091858E+00   6.315785582637241E+00   6.395228385529487E+00
   6.475670455868155E+00   6.557124362890405E+00   6.639602833934942E+00
   6.723118756430647E+00   6.807685179910347E+00   6.893315318049740E+00
   6.980022550732136E+00   7.067820426139063E+00   7.156722662867154E+00
   7.246743152071796E+00   7.337895959637549E+00   7.430195328376061E+00
   7.523655680251497E+00   7.618291618633952E+00   7.714117930581368E+00
   7.811149589149919E+00   7.909401755733683E+00   8.008889782433595E+00
   8.109629214456213E+00   8.211635792542772E+00   8.314925455428606E+00
   8.419514342333693E+00   8.525418795484423E+00   8.632655362667032E+00
   8.741240799813346E+00   8.851192073618808E+00   8.962526364193662E+00
   9.075261067747340E+00   9.189413799306600E+00   9.305002395468025E+00
   9.422044917184898E+00   9.540559652589383E+00   9.660565119850022E+00
   9.782080070065190E+00   9.905123490193121E+00   1.002971460601851E+01
   1.015587288515670E+01   1.028361804009549E+01   1.041297003127522E+01
   1.054394907020771E+01   1.067657562263422E+01   1.081087041172344E+01
   1.094685442130939E+01   1.108454889917020E+01   1.122397536034822E+01
   1.136515559051163E+01   1.150811164935864E+01   1.165286587406432E+01
   1.179944088277074E+01   1.194785957812126E+01   1.209814515083896E+01
   1.225032108335034E+01   1.240441115345448E+01   1.256043943803831E+01
   1.271843031683876E+01   1.287840847625204E+01   1.304039891319106E+01
   1.320442693899119E+01   1.337051818336513E+01   1.353869859840777E+01
   1.370899446265109E+01   1.388143238517036E+01   1.405603930974184E+01
   1.423284251905267E+01   1.441186963896407E+01   1.459314864282770E+01
   1.477670785585678E+01   1.496257595955180E+01   1.515078199618207E+01
   1.534135537332378E+01   1.553432586845477E+01   1.572972363360754E+01