<UPF version="2.0.1">
  <PP_INFO>
    Generated using "atomic" code by A. Dal Corso  v.7.2
    Author: ADC
    Generation date: 20Sep2023
    Pseudopotential type: PAW
    Element: Pa
    Functional:  SLA  PW   PBX  PBC
    Suggested minimum cutoff for wavefunctions:  91. Ry
    Suggested minimum cutoff for charge density: 446. Ry
    The Pseudo was generated with a Scalar-Relativistic Calculation
    Local Potential by smoothing AE potential with Bessel fncs, cutoff radius:   2.1000
    Valence configuration: 
    nl pn  l   occ       Rcut    Rcut US       E pseu
    6S  1  0  2.00      1.300      1.500    -3.452783
    7S  2  0  2.00      1.300      1.500    -0.319006
    6P  2  1  6.00      1.400      2.200    -1.718100
    6D  3  2  1.50      1.900      2.200    -0.200950
    5F  4  3  1.50      1.100      1.300    -0.271077
    Generation configuration:
    6S  1  0  2.00      1.300      1.500    -3.452939
    7S  2  0  2.00      1.300      1.500    -0.319005
    6P  2  1  6.00      1.400      2.200    -1.718213
    7P  3  1  0.00      1.400      2.200     5.000000
    6D  3  2  1.50      1.900      2.200    -0.201009
    6D  3  2  0.00      1.900      2.200     4.800000
    5F  4  3  1.50      1.100      1.300    -0.271184
    5F  4  3  0.00      1.100      1.300    -0.500000
    Pseudization used: troullier-martins
    <PP_INPUTFILE>
@input
title='Pa',
zed=91.0,
rel=1,
config='[Rn] 6d1.5 7s2.0 7p0. 5f1.5',
iswitch=3,
dft='PBE'
/
@inputp
lpaw=.true.,
pseudotype=3,
file_pseudopw='Pa.pbe-spfn-kjpaw_psl.1.0.0.UPF',
author='ADC',
lloc=-1,
rcloc=2.1,
which_augfun='PSQ',
rmatch_augfun_nc=.true.,
nlcc=.true.,
new_core_ps=.true.,
rcore=1.5,
tm=.true.
/
8
6S  1  0  2.00  0.00  1.30  1.50  0.0
7S  2  0  2.00  0.00  1.30  1.50  0.0
6P  2  1  6.00  0.00  1.40  2.20  0.0
7P  3  1  0.00  5.00  1.40  2.20  0.0
6D  3  2  1.50  0.00  1.90  2.20  0.0
6D  3  2  0.00  4.80  1.90  2.20  0.0
5F  4  3  1.50  0.00  1.10  1.30  0.0
5F  4  3  0.00 -0.50  1.10  1.30  0.0
    </PP_INPUTFILE>
  </PP_INFO>
    <!-- END OF HUMAN READABLE SECTION -->
  <PP_HEADER generated="Generated using 'atomic' code by A. Dal Corso  v.7.2" author="ADC" date="20Sep2023" comment="" element="Pa" pseudo_type="PAW" relativistic="scalar" is_ultrasoft="true" is_paw="true" is_coulomb="false" has_so="false" has_wfc="true" has_gipaw="false" paw_as_gipaw="false" core_correction="true" functional=" SLA  PW   PBX  PBC" z_valence="13.000000000000000" total_psenergy="-995.65615813659463" wfc_cutoff="90.933661049449100" rho_cutoff="445.55035897890747" l_max="3" l_max_rho="6" l_local="-1" mesh_size="1291" number_of_wfc="5" number_of_proj="8"/>
  <PP_MESH mesh="1291" dx="1.2500000000000001E-002" xmin="-7.0000000000000000" rmax="100.00000000000000" zmesh="91.000000000000000">
    <PP_R>
   1.002068094015952E-05   1.014672558976948E-05   1.027435568589651E-05
   1.040359117100279E-05   1.053445223839582E-05   1.066695933538361E-05
   1.080113316646966E-05   1.093699469658804E-05   1.107456515437924E-05
   1.121386603550719E-05   1.135491910601799E-05   1.149774640574086E-05
   1.164237025173198E-05   1.178881324176150E-05   1.193709825784459E-05
   1.208724846981668E-05   1.223928733895388E-05   1.239323862163882E-05
   1.254912637307261E-05   1.270697495103360E-05   1.286680901968324E-05
   1.302865355341992E-05   1.319253384078133E-05   1.335847548839577E-05
   1.352650442498331E-05   1.369664690540714E-05   1.386892951477598E-05
   1.404337917259807E-05   1.422002313698734E-05   1.439888900892264E-05
   1.458000473656035E-05   1.476339861960139E-05   1.494909931371312E-05
   1.513713583500678E-05   1.532753756457142E-05   1.552033425306463E-05
   1.571555602536126E-05   1.591323338526039E-05   1.611339722025168E-05
   1.631607880634161E-05   1.652130981294035E-05   1.672912230781024E-05
   1.693954876207638E-05   1.715262205530035E-05   1.736837548061777E-05
   1.758684274994027E-05   1.780805799922315E-05   1.803205579379919E-05
   1.825887113377949E-05   1.848853945952243E-05   1.872109665717114E-05
   1.895657906426091E-05   1.919502347539692E-05   1.943646714800352E-05
   1.968094780814582E-05   1.992850365642434E-05   2.017917337394403E-05
   2.043299612835825E-05   2.069001157998876E-05   2.095025988802282E-05
   2.121378171678801E-05   2.148061824210623E-05   2.175081115772744E-05
   2.202440268184439E-05   2.230143556368938E-05   2.258195309021383E-05
   2.286599909285197E-05   2.315361795436960E-05   2.344485461579899E-05
   2.373975458346104E-05   2.403836393607566E-05   2.434072933196172E-05
   2.464689801632751E-05   2.495691782865282E-05   2.527083721016413E-05
   2.558870521140345E-05   2.591057149989267E-05   2.623648636789421E-05
   2.656650074026927E-05   2.690066618243498E-05   2.723903490842152E-05
   2.758165978903075E-05   2.792859436009734E-05   2.827989283085385E-05
   2.863561009240108E-05   2.899580172628485E-05   2.936052401318077E-05
   2.972983394168821E-05   3.010378921723482E-05   3.048244827109328E-05
   3.086587026951113E-05   3.125411512295569E-05   3.164724349547520E-05
   3.204531681417766E-05   3.244839727882908E-05   3.285654787157209E-05
   3.326983236676720E-05   3.368831534095762E-05   3.411206218295943E-05
   3.454113910407890E-05   3.497561314845788E-05   3.541555220354974E-05
   3.586102501072690E-05   3.631210117602178E-05   3.676885118100299E-05
   3.723134639378804E-05   3.769965908019489E-05   3.817386241503355E-05
   3.865403049353988E-05   3.914023834295308E-05   3.963256193423879E-05
   4.013107819395982E-05   4.063586501629596E-05   4.114700127521517E-05
   4.166456683679789E-05   4.218864257171608E-05   4.271931036786956E-05
   4.325665314318113E-05   4.380075485855265E-05   4.435170053098416E-05
   4.490957624685787E-05   4.547446917538942E-05   4.604646758224813E-05
   4.662566084334879E-05   4.721213945881692E-05   4.780599506712933E-05
   4.840732045943304E-05   4.901620959404398E-05   4.963275761112820E-05
   5.025706084756783E-05   5.088921685201369E-05   5.152932440012759E-05
   5.217748351001624E-05   5.283379545785918E-05   5.349836279373366E-05
   5.417128935763793E-05   5.485268029571667E-05   5.554264207669026E-05
   5.624128250849067E-05   5.694871075510687E-05   5.766503735364159E-05
   5.839037423158324E-05   5.912483472429473E-05   5.986853359272225E-05
   6.062158704132716E-05   6.138411273624285E-05   6.215622982366053E-05
   6.293805894844599E-05   6.372972227299056E-05   6.453134349629947E-05
   6.534304787331972E-05   6.616496223451163E-05   6.699721500566636E-05
   6.783993622797253E-05   6.869325757833583E-05   6.955731238995326E-05
   7.043223567314707E-05   7.131816413646029E-05   7.221523620801772E-05
   7.312359205715575E-05   7.404337361632381E-05   7.497472460326184E-05
   7.591779054345639E-05   7.687271879287924E-05   7.783965856101236E-05
   7.881876093416152E-05   7.981017889906475E-05   8.081406736679600E-05
   8.183058319697074E-05   8.285988522225578E-05   8.390213427318640E-05
   8.495749320329748E-05   8.602612691456893E-05   8.710820238319224E-05
   8.820388868566111E-05   8.931335702518913E-05   9.043678075846187E-05
   9.157433542272318E-05   9.272619876320363E-05   9.389255076089392E-05
   9.507357366066631E-05   9.626945199975195E-05   9.748037263657426E-05
   9.870652477994633E-05   9.994810001863544E-05   1.012052923512982E-04
   1.024782982167948E-04   1.037673165248814E-04   1.050725486872913E-04
   1.063941986492054E-04   1.077324729211190E-04   1.090875806111100E-04
   1.104597334575119E-04   1.118491458619986E-04   1.132560349230851E-04
   1.146806204700495E-04   1.161231250972819E-04   1.175837741990651E-04
   1.190627960047929E-04   1.205604216146317E-04   1.220768850356297E-04
   1.236124232182820E-04   1.251672760935536E-04   1.267416866103695E-04
   1.283359007735764E-04   1.299501676823804E-04   1.315847395692706E-04
   1.332398718394297E-04   1.349158231106422E-04   1.366128552537043E-04
   1.383312334333406E-04   1.400712261496381E-04   1.418331052799986E-04
   1.436171461216207E-04   1.454236274345158E-04   1.472528314850640E-04
   1.491050440901202E-04   1.509805546616719E-04   1.528796562520618E-04
   1.548026455997773E-04   1.567498231758160E-04   1.587214932306360E-04
   1.607179638416947E-04   1.627395469615868E-04   1.647865584667881E-04
   1.668593182070104E-04   1.689581500551806E-04   1.710833819580449E-04
   1.732353459874119E-04   1.754143783920398E-04   1.776208196501744E-04
   1.798550145227520E-04   1.821173121072665E-04   1.844080658923182E-04
   1.867276338128471E-04   1.890763783060592E-04   1.914546663680606E-04
   1.938628696111996E-04   1.963013643221322E-04   1.987705315206188E-04
   2.012707570190569E-04   2.038024314827680E-04   2.063659504910375E-04
   2.089617145989259E-04   2.115901293998564E-04   2.142516055889889E-04
   2.169465590273932E-04   2.196754108070267E-04   2.224385873165318E-04
   2.252365203078600E-04   2.280696469637334E-04   2.309384099659564E-04
   2.338432575645843E-04   2.367846436479645E-04   2.397630278136569E-04
   2.427788754402466E-04   2.458326577600616E-04   2.489248519328019E-04
   2.520559411200981E-04   2.552264145610063E-04   2.584367676484517E-04
   2.616875020066361E-04   2.649791255694162E-04   2.683121526596707E-04
   2.716871040696637E-04   2.751045071424192E-04   2.785648958541203E-04
   2.820688108975432E-04   2.856167997665423E-04   2.892094168415968E-04
   2.928472234764339E-04   2.965307880857416E-04   3.002606862339843E-04
   3.040375007253360E-04   3.078618216947453E-04   3.117342467001440E-04
   3.156553808158179E-04   3.196258367269503E-04   3.236462348253548E-04
   3.277172033064144E-04   3.318393782672363E-04   3.360134038060450E-04
   3.402399321228230E-04   3.445196236212186E-04   3.488531470117357E-04
   3.532411794162205E-04   3.576844064736641E-04   3.621835224473337E-04
   3.667392303332536E-04   3.713522419700501E-04   3.760232781501762E-04
   3.807530687325388E-04   3.855423527565389E-04   3.903918785575491E-04
   3.953024038838425E-04   4.002746960149916E-04   4.053095318817584E-04
   4.104076981874904E-04   4.155699915310448E-04   4.207972185312600E-04
   4.260901959529891E-04   4.314497508347233E-04   4.368767206178167E-04
   4.423719532773390E-04   4.479363074545739E-04   4.535706525911819E-04
   4.592758690650540E-04   4.650528483278716E-04   4.709024930443977E-04
   4.768257172335206E-04   4.828234464110706E-04   4.888966177344343E-04
   4.950461801489871E-04   5.012730945363671E-04   5.075783338646167E-04
   5.139628833402086E-04   5.204277405619882E-04   5.269739156770492E-04
   5.336024315385711E-04   5.403143238656438E-04   5.471106414050983E-04
   5.539924460953778E-04   5.609608132324661E-04   5.680168316379056E-04
   5.751616038289273E-04   5.823962461907231E-04   5.897218891508806E-04
   5.971396773560164E-04   6.046507698506292E-04   6.122563402582022E-04
   6.199575769645862E-04   6.277556833036845E-04   6.356518777454779E-04
   6.436473940864127E-04   6.517434816421837E-04   6.599414054429445E-04
   6.682424464309667E-04   6.766479016607938E-04   6.851590845019061E-04
   6.937773248439382E-04   7.025039693044787E-04   7.113403814394786E-04
   7.202879419563117E-04   7.293480489295126E-04   7.385221180192281E-04
   7.478115826924197E-04   7.572178944468416E-04   7.667425230378425E-04
   7.763869567080178E-04   7.861527024197497E-04   7.960412860906754E-04
   8.060542528321113E-04   8.161931671904825E-04   8.264596133917849E-04
   8.368551955891245E-04   8.473815381133705E-04   8.580402857269578E-04
   8.688331038808867E-04   8.797616789749515E-04   8.908277186212443E-04
   9.020329519109758E-04   9.133791296846435E-04   9.248680248056088E-04
   9.365014324371085E-04   9.482811703227527E-04   9.602090790705537E-04
   9.722870224405199E-04   9.845168876358760E-04   9.969005855979401E-04
   1.009440051304713E-03   1.022137244073225E-03   1.034994147865678E-03
   1.048012771599447E-03   1.061195149460977E-03   1.074543341223627E-03
   1.088059432569520E-03   1.101745535415426E-03   1.115603788242759E-03
   1.129636356431719E-03   1.143845432599634E-03   1.158233236943564E-03
   1.172802017587211E-03   1.187554050932190E-03   1.202491642013725E-03
   1.217617124860813E-03   1.232932862860920E-03   1.248441249129272E-03
   1.264144706882774E-03   1.280045689818649E-03   1.296146682497831E-03
   1.312450200733183E-03   1.328958791982601E-03   1.345675035747054E-03
   1.362601543973640E-03   1.379740961463707E-03   1.397095966286105E-03
   1.414669270195651E-03   1.432463619056832E-03   1.450481793272860E-03
   1.468726608220115E-03   1.487200914688052E-03   1.505907599324643E-03
   1.524849585087421E-03   1.544029831700200E-03   1.563451336115535E-03
   1.583117132983003E-03   1.603030295123378E-03   1.623193934008757E-03
   1.643611200248738E-03   1.664285284082711E-03   1.685219415878335E-03
   1.706416866636297E-03   1.727880948501403E-03   1.749615015280114E-03
   1.771622462964581E-03   1.793906730263279E-03   1.816471299138314E-03
   1.839319695349479E-03   1.862455489005167E-03   1.885882295120207E-03
   1.909603774180716E-03   1.933623632716061E-03   1.957945623878005E-03
   1.982573548027152E-03   2.007511253326756E-03   2.032762636344003E-03
   2.058331642658869E-03   2.084222267480608E-03   2.110438556272024E-03
   2.136984605381579E-03   2.163864562683451E-03   2.191082628225661E-03
   2.218643054886324E-03   2.246550149038177E-03   2.274808271221459E-03
   2.303421836825251E-03   2.332395316777397E-03   2.361733238243084E-03
   2.391440185332231E-03   2.421520799815758E-03   2.451979781850877E-03
   2.482821890715504E-03   2.514051945551896E-03   2.545674826119658E-03
   2.577695473558218E-03   2.610118891158880E-03   2.642950145146617E-03
   2.676194365471657E-03   2.709856746611062E-03   2.743942548380371E-03
   2.778457096755455E-03   2.813405784704726E-03   2.848794073031776E-03
   2.884627491228653E-03   2.920911638339854E-03   2.957652183837185E-03
   2.994854868505634E-03   3.032525505340365E-03   3.070669980455027E-03
   3.109294254001462E-03   3.148404361100990E-03   3.188006412787422E-03
   3.228106596961900E-03   3.268711179359788E-03   3.309826504529695E-03
   3.351458996824827E-03   3.393615161406812E-03   3.436301585262131E-03
   3.479524938231356E-03   3.523291974051328E-03   3.567609531410437E-03
   3.612484535017189E-03   3.657923996682194E-03   3.703935016413785E-03
   3.750524783527406E-03   3.797700577768951E-03   3.845469770452258E-03
   3.893839825610866E-03   3.942818301164305E-03   3.992412850099028E-03
   4.042631221664201E-03   4.093481262582561E-03   4.144970918276451E-03
   4.197108234109331E-03   4.249901356642874E-03   4.303358534909879E-03
   4.357488121703219E-03   4.412298574880954E-03   4.467798458687905E-03
   4.523996445093832E-03   4.580901315148444E-03   4.638521960353467E-03
   4.696867384051943E-03   4.755946702835028E-03   4.815769147966479E-03
   4.876344066825054E-03   4.937680924365073E-03   4.999789304595315E-03
   5.062678912076551E-03   5.126359573437897E-03   5.190841238912249E-03
   5.256133983891034E-03   5.322248010498491E-03   5.389193649185785E-03
   5.456981360345163E-03   5.525621735944406E-03   5.595125501181860E-03
   5.665503516162245E-03   5.736766777593587E-03   5.808926420505469E-03
   5.881993719988904E-03   5.955980092958102E-03   6.030897099934358E-03
   6.106756446852436E-03   6.183569986889628E-03   6.261349722317835E-03
   6.340107806378975E-03   6.419856545183913E-03   6.500608399635334E-03
   6.582375987374788E-03   6.665172084754214E-03   6.749009628832285E-03
   6.833901719395828E-03   6.919861621006707E-03   7.006902765074437E-03
   7.095038751954857E-03   7.184283353075246E-03   7.274650513086091E-03
   7.366154352039996E-03   7.458809167597965E-03   7.552629437263431E-03
   7.647629820644419E-03   7.743825161744106E-03   7.841230491280252E-03
   7.939861029033766E-03   8.039732186226833E-03   8.140859567930966E-03
   8.243258975505298E-03   8.346946409065593E-03   8.451938069984297E-03
   8.558250363422032E-03   8.665899900890953E-03   8.774903502850300E-03
   8.885278201334647E-03   8.997041242615193E-03   9.110210089894509E-03
   9.224802426035248E-03   9.340836156323060E-03   9.458329411264376E-03
   9.577300549419325E-03   9.697768160270280E-03   9.819751067126547E-03
   9.943268330065492E-03   1.006833924891075E-02   1.019498336624784E-02
   1.032322047047776E-02   1.045307059890895E-02   1.058455404088816E-02
   1.071769134097069E-02   1.085250330213057E-02   1.098901098901099E-02
   1.112723573121577E-02   1.126719912664208E-02   1.140892304485523E-02
   1.155242963050577E-02   1.169774130678966E-02   1.184488077895200E-02
   1.199387103783464E-02   1.214473536346866E-02   1.229749732871188E-02
   1.245218080293216E-02   1.260880995573706E-02   1.276740926075037E-02
   1.292800349943617E-02   1.309061776497098E-02   1.325527746616462E-02
   1.342200833143044E-02   1.359083641280533E-02   1.376178809002050E-02
   1.393489007462330E-02   1.411016941415100E-02   1.428765349635705E-02
   1.446737005349035E-02   1.464934716662861E-02   1.483361327006598E-02
   1.502019715575600E-02   1.520912797781046E-02   1.540043525705466E-02
   1.559414888564020E-02   1.579029913171566E-02   1.598891664415606E-02
   1.619003245735182E-02   1.639367799605792E-02   1.659988508030410E-02
   1.680868593036681E-02   1.702011317180366E-02   1.723419984055131E-02
   1.745097938808730E-02   1.767048568665696E-02   1.789275303456606E-02
   1.811781616153987E-02   1.834571023414992E-02   1.857647086130870E-02
   1.881013409983369E-02   1.904673646008128E-02   1.928631491165163E-02
   1.952890688916526E-02   1.977455029811219E-02   2.002328352077484E-02
   2.027514542222529E-02   2.053017535639805E-02   2.078841317223923E-02
   2.104989921993293E-02   2.131467435720610E-02   2.158277995571262E-02
   2.185425790749771E-02   2.212915063154370E-02   2.240750108039798E-02
   2.268935274688448E-02   2.297474967089953E-02   2.326373644629313E-02
   2.355635822783692E-02   2.385266073827959E-02   2.415269027549124E-02
   2.445649371969746E-02   2.476411854080449E-02   2.507561280581653E-02
   2.539102518634620E-02   2.571040496621969E-02   2.603380204917738E-02
   2.636126696667141E-02   2.669285088576141E-02   2.702860561710935E-02
   2.736858362307508E-02   2.771283802591373E-02   2.806142261607612E-02
   2.841439186061370E-02   2.877180091168903E-02   2.913370561519349E-02
   2.950016251947332E-02   2.987122888416533E-02   3.024696268914404E-02
   3.062742264358079E-02   3.101266819511758E-02   3.140275953915567E-02
   3.179775762826111E-02   3.219772418168906E-02   3.260272169502713E-02
   3.301281344996079E-02   3.342806352416116E-02   3.384853680129704E-02
   3.427429898117357E-02   3.470541658999746E-02   3.514195699077224E-02
   3.558398839382377E-02   3.603157986745795E-02   3.648480134875331E-02
   3.694372365448825E-02   3.740841849220679E-02   3.787895847142283E-02
   3.835541711496529E-02   3.883786887046674E-02   3.932638912199539E-02
   3.982105420183452E-02   4.032194140240931E-02   4.082912898836378E-02
   4.134269620879027E-02   4.186272330961167E-02   4.238929154612058E-02
   4.292248319567533E-02   4.346238157055579E-02   4.400907103098164E-02
   4.456263699829315E-02   4.512316596829902E-02   4.569074552479133E-02
   4.626546435323033E-02   4.684741225460244E-02   4.743668015945104E-02
   4.803336014208524E-02   4.863754543496635E-02   4.924933044327543E-02
   4.986881075966492E-02   5.049608317919439E-02   5.113124571445570E-02
   5.177439761088731E-02   5.242563936228135E-02   5.308507272648663E-02
   5.375280074130776E-02   5.442892774060564E-02   5.511355937059959E-02
   5.580680260637452E-02   5.650876576859661E-02   5.721955854043791E-02
   5.793929198471527E-02   5.866807856124373E-02   5.940603214440843E-02
   6.015326804095830E-02   6.090990300802224E-02   6.167605527135335E-02
   6.245184454380163E-02   6.323739204401901E-02   6.403282051540088E-02
   6.483825424526393E-02   6.565381908426728E-02   6.647964246607638E-02
   6.731585342727457E-02   6.816258262752606E-02   6.901996236999083E-02
   6.988812662199813E-02   7.076721103597873E-02   7.165735297066057E-02
   7.255869151253225E-02   7.347136749757442E-02   7.439552353326674E-02
   7.533130402087014E-02   7.627885517798941E-02   7.723832506142089E-02
   7.820986359028569E-02   7.919362256945567E-02   8.018975571327293E-02
   8.119841866956759E-02   8.221976904397897E-02   8.325396642458076E-02
   8.430117240681788E-02   8.536155061875580E-02   8.643526674664716E-02
   8.752248856082176E-02   8.862338594189972E-02   8.973813090733677E-02
   9.086689763830191E-02   9.200986250689303E-02   9.316720410369650E-02
   9.433910326569117E-02   9.552574310450551E-02   9.672730903502871E-02
   9.794398880438172E-02   9.917597252125418E-02   1.004234526856080E-01
   1.016866242187570E-01   1.029656844938235E-01   1.042608333665772E-01
   1.055722732066650E-01   1.069002089292295E-01   1.082448480269295E-01
   1.096064006023596E-01   1.109850794008797E-01   1.123810998438572E-01
   1.137946800623263E-01   1.152260409310722E-01   1.166754061031430E-01
   1.181430020447951E-01   1.196290580708808E-01   1.211338063806770E-01
   1.226574820941688E-01   1.242003232887867E-01   1.257625710366057E-01
   1.273444694420154E-01   1.289462656798595E-01   1.305682100340593E-01
   1.322105559367202E-01   1.338735600077305E-01   1.355574820948601E-01
   1.372625853143606E-01   1.389891360920794E-01   1.407374042050884E-01
   1.425076628238366E-01   1.443001885548355E-01   1.461152614838768E-01
   1.479531652197990E-01   1.498141869387996E-01   1.516986174293087E-01
   1.536067511374247E-01   1.555388862129210E-01   1.574953245558346E-01
   1.594763718636365E-01   1.614823376789994E-01   1.635135354381632E-01
   1.655702825199098E-01   1.676529002951558E-01   1.697617141771651E-01
   1.718970536723975E-01   1.740592524319938E-01   1.762486483039085E-01
   1.784655833857017E-01   1.807104040779897E-01   1.829834611385730E-01
   1.852851097372423E-01   1.876157095112732E-01   1.899756246216227E-01
   1.923652238098274E-01   1.947848804556225E-01   1.972349726352819E-01
   1.997158831806931E-01   2.022279997391766E-01   2.047717148340551E-01
   2.073474259259877E-01   2.099555354750733E-01   2.125964510037343E-01
   2.152705851603958E-01   2.179783557839597E-01   2.207201859690953E-01
   2.234965041323476E-01   2.263077440790773E-01   2.291543450712465E-01
   2.320367518960509E-01   2.349554149354214E-01   2.379107902363964E-01
   2.409033395823788E-01   2.439335305652930E-01   2.470018366586442E-01
   2.501087372915025E-01   2.532547179234132E-01   2.564402701202497E-01
   2.596658916310247E-01   2.629320864656610E-01   2.662393649737470E-01
   2.695882439242788E-01   2.729792465864049E-01   2.764129028111912E-01
   2.798897491144076E-01   2.834103287603633E-01   2.869751918467912E-01
   2.905848953908000E-01   2.942400034159138E-01   2.979410870401968E-01
   3.016887245654956E-01   3.054835015677988E-01   3.093260109887325E-01
   3.132168532282123E-01   3.171566362382531E-01   3.211459756179664E-01
   3.251854947097471E-01   3.292758246966706E-01   3.334176047011204E-01
   3.376114818846476E-01   3.418581115490952E-01   3.461581572389886E-01
   3.505122908452143E-01   3.549211927100079E-01   3.593855517332546E-01
   3.639060654801353E-01   3.684834402901205E-01   3.731183913873358E-01
   3.778116429923212E-01   3.825639284351873E-01   3.873759902702038E-01
   3.922485803918232E-01   3.971824601521641E-01   4.021784004799784E-01
   4.072371820011054E-01   4.123595951604506E-01   4.175464403454923E-01
   4.227985280113422E-01   4.281166788073849E-01   4.335017237055006E-01
   4.389545041299114E-01   4.444758720886531E-01   4.500666903067011E-01
   4.557278323607782E-01   4.614601828158463E-01   4.672646373633273E-01
   4.731421029610545E-01   4.790934979749836E-01   4.851197523226954E-01
   4.912218076186907E-01   4.974006173215249E-01   5.036571468827858E-01
   5.099923738979448E-01   5.164072882591138E-01   5.229028923097110E-01
   5.294802010010859E-01   5.361402420511040E-01   5.428840561047273E-01
   5.497126968966243E-01   5.566272314158095E-01   5.636287400723704E-01
   5.707183168662802E-01   5.778970695583346E-01   5.851661198432494E-01
   5.925266035249183E-01   5.999796706938927E-01   6.075264859070822E-01
   6.151682283697160E-01   6.229060921196030E-01   6.307412862136950E-01
   6.386750349170108E-01   6.467085778939281E-01   6.548431704018790E-01
   6.630800834874951E-01   6.714206041852019E-01   6.798660357183284E-01
   6.884176977027353E-01   6.970769263530038E-01   7.058450746912303E-01
   7.147235127584287E-01   7.237136278286120E-01   7.328168246255518E-01
   7.420345255422653E-01   7.513681708632772E-01   7.608192189896554E-01
   7.703891466668995E-01   7.800794492156806E-01   7.898916407654843E-01
   7.998272544912060E-01   8.098878428527015E-01   8.200749778373726E-01
   8.303902512057877E-01   8.408352747403944E-01   8.514116804973733E-01
   8.621211210616391E-01   8.729652698050696E-01   8.839458211479705E-01
   8.950644908238258E-01   9.063230161473969E-01   9.177231562861679E-01
   9.292666925352308E-01   9.409554285956117E-01   9.527911908560979E-01
   9.647758286786255E-01   9.769112146872344E-01   9.891992450606792E-01
   1.001641839828708E+00   1.014240943172065E+00   1.026998523726283E+00
   1.039916574889276E+00   1.052997115132823E+00   1.066242188317950E+00
   1.079653864014287E+00   1.093234237823450E+00   1.106985431706474E+00
   1.120909594315381E+00   1.135008901328910E+00   1.149285555792464E+00
   1.163741788462352E+00   1.178379858154336E+00   1.193202052096589E+00
   1.208210686287073E+00   1.223408105855410E+00   1.238796685429333E+00
   1.254378829505704E+00   1.270156972826238E+00   1.286133580757933E+00
   1.302311149678278E+00   1.318692207365336E+00   1.335279313392692E+00
   1.352075059529413E+00   1.369082070145005E+00   1.386303002619474E+00
   1.403740547758561E+00   1.421397430214165E+00   1.439276408910094E+00
   1.457380277473150E+00   1.475711864669621E+00   1.494274034847309E+00
   1.513069688383063E+00   1.532101762135991E+00   1.551373229906341E+00
   1.570887102900154E+00   1.590646430199793E+00   1.610654299240343E+00
   1.630913836292051E+00   1.651428206948802E+00   1.672200616622743E+00
   1.693234311045153E+00   1.714532576773573E+00   1.736098741705357E+00
   1.757936175597656E+00   1.780048290593938E+00   1.802438541757165E+00
   1.825110427609627E+00   1.848067490679620E+00   1.871313318054958E+00
   1.894851541943454E+00   1.918685840240488E+00   1.942819937103653E+00
   1.967257603534689E+00   1.992002657968696E+00   2.017058966870769E+00
   2.042430445340157E+00   2.068121057721983E+00   2.094134818226703E+00
   2.120475791557325E+00   2.147148093544516E+00   2.174155891789733E+00
   2.201503406316394E+00   2.229194910229285E+00   2.257234730382235E+00
   2.285627248054183E+00   2.314376899633789E+00   2.343488177312594E+00
   2.372965629786968E+00   2.402813862968837E+00   2.433037540705353E+00
   2.463641385507663E+00   2.494630179288770E+00   2.526008764110756E+00
   2.557782042941344E+00   2.589954980419985E+00   2.622532603633625E+00
   2.655520002902162E+00   2.688922332573850E+00   2.722744811830663E+00
   2.756992725503787E+00   2.791671424899421E+00   2.826786328634890E+00
   2.862342923485349E+00   2.898346765241091E+00   2.934803479575628E+00
   2.971718762924758E+00   3.009098383376600E+00   3.046948181572901E+00
   3.085274071621643E+00   3.124082042021109E+00   3.163378156595641E+00
   3.203168555443079E+00   3.243459455894201E+00   3.284257153484182E+00
   3.325568022936262E+00   3.367398519157853E+00   3.409755178249081E+00
   3.452644618524112E+00   3.496073541545254E+00   3.540048733170072E+00
   3.584577064611740E+00   3.629665493512625E+00   3.675321065031484E+00
   3.721550912944259E+00   3.768362260758729E+00   3.815762422843243E+00
   3.863758805569547E+00   3.912358908470100E+00   3.961570325409865E+00
   4.011400745772845E+00   4.061857955663618E+00   4.112949839123870E+00
   4.164684379364346E+00   4.217069660012222E+00   4.270113866374163E+00
   4.323825286715346E+00   4.378212313554461E+00   4.433283444975111E+00
   4.489047285953633E+00   4.545512549703613E+00   4.602688059037410E+00
   4.660582747744666E+00   4.719205661988285E+00   4.778565961717897E+00
   4.838672922101087E+00   4.899535934972721E+00   4.961164510302368E+00
   5.023568277680318E+00   5.086756987822193E+00   5.150740514092495E+00
   5.215528854047395E+00   5.281132130996806E+00   5.347560595586233E+00
   5.414824627398426E+00   5.482934736575187E+00   5.551901565459665E+00
   5.621735890259167E+00   5.692448622729033E+00   5.764050811877587E+00
   5.836553645692540E+00   5.909968452889202E+00   5.984306704680543E+00
   6.059580016569657E+00   6.135800150164681E+00   6.212979015016541E+00
   6.291128670479910E+00   6.370261327597433E+00   6.450389351007789E+00
   6.531525260877673E+00   6.613681734858046E+00   6.696871610065144E+00
   6.781107885086194E+00   6.866403722010559E+00   6.952772448486309E+00
   7.040227559802647E+00   7.128782720998670E+00   7.218451768998460E+00
   7.309248714773207E+00   7.401187745530433E+00   7.494283226930720E+00
   7.588549705332465E+00   7.684001910064679E+00   7.780654755728564E+00
   7.878523344527911E+00   7.977622968628806E+00   8.077969112549164E+00
   8.179577455578100E+00   8.282463874225948E+00   8.386644444704963E+00
   8.492135445441209E+00   8.598953359618204E+00   8.707114877752330E+00
   8.816636900300868E+00   8.927536540302681E+00   9.039831126052114E+00
   9.153538203806690E+00   9.268675540528610E+00   9.385261126661007E+00
   9.503313178938921E+00   9.622850143235670E+00   9.743890697445156E+00
   9.866453754400201E+00   9.990558464827828E+00   1.011622422034155E+01
   1.024347065647130E+01   1.037231765573165E+01   1.050278535072833E+01
   1.063489412730414E+01   1.076866462772422E+01   1.090411775390139E+01
   1.104127467066222E+01   1.118015680905397E+01   1.132078586969334E+01