
     Program PWSCF v.7.1 starts on 26Mar2024 at 11:48:15 

     This program is part of the open-source Quantum ESPRESSO suite
     for quantum simulation of materials; please cite
         "P. Giannozzi et al., J. Phys.:Condens. Matter 21 395502 (2009);
         "P. Giannozzi et al., J. Phys.:Condens. Matter 29 465901 (2017);
         "P. Giannozzi et al., J. Chem. Phys. 152 154105 (2020);
          URL http://www.quantum-espresso.org", 
     in publications or presentations arising from this work. More details at
     http://www.quantum-espresso.org/quote

     Parallel version (MPI & OpenMP), running on      10 processor cores
     Number of MPI processes:                10
     Threads/MPI process:                     1

     MPI processes distributed on     1 nodes
     15117 MiB available memory on the printing compute node when the environment starts

     Waiting for input...
     Reading input from standard input

     Current dimensions of program PWSCF are:
     Max number of different atomic species (ntypx) = 10
     Max number of k-points (npk) =  40000
     Max angular momentum in pseudopotentials (lmaxx) =  4
     file Nd.pbe-spdn-kjpaw_psl.1.0.0.UPF: wavefunction(s)  5D renormalized
     Message from routine setup:
     using ibrav=0 with symmetry is DISCOURAGED, use correct ibrav instead

     R & G space division:  proc/nbgrp/npool/nimage =      10
     Subspace diagonalization in iterative solution of the eigenvalue problem:
     a serial algorithm will be used


     Parallelization info
     --------------------
     sticks:   dense  smooth     PW     G-vecs:    dense   smooth      PW
     Min          67      51     16                 1156      762     140
     Max          68      52     17                 1159      764     143
     Sum         673     511    163                11575     7631    1411

     Using Slab Decomposition



     bravais-lattice index     =            0
     lattice parameter (alat)  =       6.9696  a.u.
     unit-cell volume          =     239.3927 (a.u.)^3
     number of atoms/cell      =            1
     number of atomic types    =            1
     number of electrons       =        11.00
     number of Kohn-Sham states=           46
     kinetic-energy cutoff     =      38.0000  Ry
     charge density cutoff     =     202.0000  Ry
     scf convergence threshold =      7.3E-05
     mixing beta               =       0.7000
     number of iterations used =            8  plain     mixing
     Exchange-correlation= SLA  PW   PBX  PBC
                           (   1   4   3   4   0   0   0)

     celldm(1)=   6.969612  celldm(2)=   0.000000  celldm(3)=   0.000000
     celldm(4)=   0.000000  celldm(5)=   0.000000  celldm(6)=   0.000000

     crystal axes: (cart. coord. in units of alat)
               a(1) = (   1.000000   0.000000   0.000000 )  
               a(2) = (   0.500000   0.866025   0.000000 )  
               a(3) = (   0.500000   0.288675   0.816497 )  

     reciprocal axes: (cart. coord. in units 2 pi/alat)
               b(1) = (  1.000000 -0.577350 -0.408248 )  
               b(2) = (  0.000000  1.154701 -0.408248 )  
               b(3) = (  0.000000  0.000000  1.224745 )  


     PseudoPot. # 1 for Nd read from file:
     ./../../../pseudo/psl100_PBE/Nd.pbe-spdn-kjpaw_psl.1.0.0.UPF
     MD5 check sum: fabf263ff8bae072ee95d940efef89a5
     Pseudo is Projector augmented-wave + core cor, Zval = 11.0
     Generated using 'atomic' code by A. Dal Corso  v.7.2
     Shape of augmentation charge: PSQ
     Using radial grid of 1257 points,  6 beta functions with: 
                l(1) =   0
                l(2) =   0
                l(3) =   1
                l(4) =   1
                l(5) =   2
                l(6) =   2
     Q(r) pseudized with 0 coefficients 


     atomic species   valence    mass     pseudopotential
        Nd            11.00   144.24200     Nd( 1.00)

     12 Sym. Ops., with inversion, found



   Cartesian axes

     site n.     atom                  positions (alat units)
         1           Nd  tau(   1) = (   0.0000000   0.0000000   0.0000000  )

     number of k points=   116  Methfessel-Paxton smearing, width (Ry)=  0.0200

     Number of k-points >= 100: set verbosity='high' to print them.

     Dense  grid:    11575 G-vectors     FFT dimensions: (  32,  32,  32)

     Smooth grid:     7631 G-vectors     FFT dimensions: (  27,  27,  27)

     Estimated max dynamical RAM per process >      12.95 MB

     Estimated total dynamical RAM >     129.48 MB

     Check: negative core charge=   -0.000001

     Initial potential from superposition of free atoms

     starting charge      10.9747, renormalised to      11.0000
     Starting wfcs are   13 randomized atomic wfcs +   33 random wfcs
     Checking if some PAW data can be deallocated... 

     total cpu time spent up to now is        1.0 secs

     per-process dynamical memory:    19.8 Mb

     Self-consistent Calculation

     iteration #  1     ecut=    38.00 Ry     beta= 0.70
     Davidson diagonalization with overlap
     ethr =  1.00E-02,  avg # of iterations =  6.8

     Threshold (ethr) on eigenvalues was too large:
     Diagonalizing with lowered threshold

     Davidson diagonalization with overlap
     ethr =  5.92E-05,  avg # of iterations =  2.7

     total cpu time spent up to now is        6.9 secs

     total energy              =    -499.30715217 Ry
     estimated scf accuracy    <       0.00653293 Ry

     iteration #  2     ecut=    38.00 Ry     beta= 0.70
     Davidson diagonalization with overlap
     ethr =  5.94E-05,  avg # of iterations =  1.1

     total cpu time spent up to now is        8.6 secs

     total energy              =    -499.30863259 Ry
     estimated scf accuracy    <       0.00016600 Ry

     iteration #  3     ecut=    38.00 Ry     beta= 0.70
     Davidson diagonalization with overlap
     ethr =  1.51E-06,  avg # of iterations =  3.7

     total cpu time spent up to now is       10.8 secs

     End of self-consistent calculation

     Number of k-points >= 100: set verbosity='high' to print the bands.

     the Fermi energy is    10.5820 ev

!    total energy              =    -499.30866329 Ry
     total all-electron energy =    -19248.185778 Ry
     estimated scf accuracy    <       0.00000814 Ry
     smearing contrib. (-TS)   =       0.00020234 Ry
     internal energy E=F+TS    =    -499.30886563 Ry

     The total energy is F=E-TS. E is the sum of the following terms:
     one-electron contribution =      -8.09223514 Ry
     hartree contribution      =       8.96985895 Ry
     xc contribution           =     -68.83810208 Ry
     ewald contribution        =     -56.28439831 Ry
     one-center paw contrib.   =    -375.06398905 Ry

     convergence has been achieved in   3 iterations

     Writing all to output data dir ./work/POSCAR.save/

     init_run     :      0.66s CPU      0.72s WALL (       1 calls)
     electrons    :      8.46s CPU      9.83s WALL (       1 calls)

     Called by init_run:
     wfcinit      :      0.44s CPU      0.46s WALL (       1 calls)
     potinit      :      0.09s CPU      0.11s WALL (       1 calls)
     hinit0       :      0.11s CPU      0.12s WALL (       1 calls)

     Called by electrons:
     c_bands      :      7.69s CPU      8.97s WALL (       4 calls)
     sum_band     :      0.66s CPU      0.71s WALL (       4 calls)
     v_of_rho     :      0.01s CPU      0.01s WALL (       4 calls)
     newd         :      0.01s CPU      0.01s WALL (       4 calls)
     PAW_pot      :      0.14s CPU      0.18s WALL (       4 calls)
     mix_rho      :      0.00s CPU      0.00s WALL (       4 calls)

     Called by c_bands:
     init_us_2    :      0.02s CPU      0.02s WALL (    1044 calls)
     init_us_2:cp :      0.02s CPU      0.02s WALL (    1044 calls)
     cegterg      :      7.60s CPU      7.84s WALL (     464 calls)

     Called by *egterg:
     cdiaghg      :      2.91s CPU      3.01s WALL (    2006 calls)
     h_psi        :      4.12s CPU      4.25s WALL (    2238 calls)
     s_psi        :      0.03s CPU      0.04s WALL (    2238 calls)
     g_psi        :      0.02s CPU      0.02s WALL (    1658 calls)

     Called by h_psi:
     h_psi:calbec :      0.10s CPU      0.10s WALL (    2238 calls)
     vloc_psi     :      3.98s CPU      4.10s WALL (    2238 calls)
     add_vuspsi   :      0.04s CPU      0.04s WALL (    2238 calls)

     General routines
     calbec       :      0.12s CPU      0.12s WALL (    2702 calls)
     fft          :      0.10s CPU      0.10s WALL (      51 calls)
     ffts         :      0.05s CPU      0.05s WALL (       8 calls)
     fftw         :      4.29s CPU      4.45s WALL (  147296 calls)
     interpolate  :      0.05s CPU      0.05s WALL (       4 calls)

     Parallel routines

     PWSCF        :      9.45s CPU     11.91s WALL


   This run was terminated on:  11:48:27  26Mar2024            

=------------------------------------------------------------------------------=
   JOB DONE.
=------------------------------------------------------------------------------=
