
     Program PWSCF v.7.1 starts on 15May2024 at 22:41:11 

     This program is part of the open-source Quantum ESPRESSO suite
     for quantum simulation of materials; please cite
         "P. Giannozzi et al., J. Phys.:Condens. Matter 21 395502 (2009);
         "P. Giannozzi et al., J. Phys.:Condens. Matter 29 465901 (2017);
         "P. Giannozzi et al., J. Chem. Phys. 152 154105 (2020);
          URL http://www.quantum-espresso.org", 
     in publications or presentations arising from this work. More details at
     http://www.quantum-espresso.org/quote

     Parallel version (MPI & OpenMP), running on      10 processor cores
     Number of MPI processes:                10
     Threads/MPI process:                     1

     MPI processes distributed on     1 nodes
     14550 MiB available memory on the printing compute node when the environment starts

     Waiting for input...
     Reading input from standard input

     Current dimensions of program PWSCF are:
     Max number of different atomic species (ntypx) = 10
     Max number of k-points (npk) =  40000
     Max angular momentum in pseudopotentials (lmaxx) =  4

     Atomic positions and unit cell read from directory:
     ./work/POSCAR.save/

     file Ce.pbe-spdn-kjpaw_psl.1.0.0.UPF: wavefunction(s)  5D renormalized
     Message from routine setup:
     using ibrav=0 with symmetry is DISCOURAGED, use correct ibrav instead

     R & G space division:  proc/nbgrp/npool/nimage =      10
     Subspace diagonalization in iterative solution of the eigenvalue problem:
     a serial algorithm will be used


     Parallelization info
     --------------------
     sticks:   dense  smooth     PW     G-vecs:    dense   smooth      PW
     Min          57      48     14                 1043      788     140
     Max          58      49     15                 1046      789     143
     Sum         577     481    149                10443     7881    1419

     Using Slab Decomposition



     bravais-lattice index     =            0
     lattice parameter (alat)  =       6.3859  a.u.
     unit-cell volume          =     260.4099 (a.u.)^3
     number of atoms/cell      =            1
     number of atomic types    =            1
     number of electrons       =        11.00
     number of Kohn-Sham states=           26
     kinetic-energy cutoff     =      37.0000  Ry
     charge density cutoff     =     179.0000  Ry
     Exchange-correlation= SLA  PW   PBX  PBC
                           (   1   4   3   4   0   0   0)

     celldm(1)=   6.385857  celldm(2)=   0.000000  celldm(3)=   0.000000
     celldm(4)=   0.000000  celldm(5)=   0.000000  celldm(6)=   0.000000

     crystal axes: (cart. coord. in units of alat)
               a(1) = (   1.000000   0.000000   0.000000 )  
               a(2) = (   0.000000   1.000000   0.000000 )  
               a(3) = (   0.000000   0.000000   1.000000 )  

     reciprocal axes: (cart. coord. in units 2 pi/alat)
               b(1) = (  1.000000  0.000000  0.000000 )  
               b(2) = (  0.000000  1.000000  0.000000 )  
               b(3) = (  0.000000  0.000000  1.000000 )  


     PseudoPot. # 1 for Ce read from file:
     ./../../../../pseudo/psl100_PBE/Ce.pbe-spdn-kjpaw_psl.1.0.0.UPF
     MD5 check sum: 1a25380276e46fcecd5a173acdad072c
     Pseudo is Projector augmented-wave + core cor, Zval = 11.0
     Generated using 'atomic' code by A. Dal Corso  v.7.2
     Shape of augmentation charge: PSQ
     Using radial grid of 1255 points,  6 beta functions with: 
                l(1) =   0
                l(2) =   0
                l(3) =   1
                l(4) =   1
                l(5) =   2
                l(6) =   2
     Q(r) pseudized with 0 coefficients 


     atomic species   valence    mass     pseudopotential
        Ce            11.00   140.11600     Ce( 1.00)

     48 Sym. Ops., with inversion, found



   Cartesian axes

     site n.     atom                  positions (alat units)
         1           Ce  tau(   1) = (   0.0000000   0.0000000   0.0000000  )

     number of k points=    91  Methfessel-Paxton smearing, width (Ry)=  0.0200
                       cart. coord. in units 2pi/alat
        k(    1) = (   0.0000000   0.5000000   0.5000000), wk =   0.0219780
        k(    2) = (   0.0500000   0.5000000   0.5000000), wk =   0.0219780
        k(    3) = (   0.1000000   0.5000000   0.5000000), wk =   0.0219780
        k(    4) = (   0.1500000   0.5000000   0.5000000), wk =   0.0219780
        k(    5) = (   0.2000000   0.5000000   0.5000000), wk =   0.0219780
        k(    6) = (   0.2500000   0.5000000   0.5000000), wk =   0.0219780
        k(    7) = (   0.3000000   0.5000000   0.5000000), wk =   0.0219780
        k(    8) = (   0.3500000   0.5000000   0.5000000), wk =   0.0219780
        k(    9) = (   0.4000000   0.5000000   0.5000000), wk =   0.0219780
        k(   10) = (   0.4500000   0.5000000   0.5000000), wk =   0.0219780
        k(   11) = (   0.5000000   0.5000000   0.5000000), wk =   0.0219780
        k(   12) = (   0.4750000   0.4750000   0.4750000), wk =   0.0219780
        k(   13) = (   0.4500000   0.4500000   0.4500000), wk =   0.0219780
        k(   14) = (   0.4250000   0.4250000   0.4250000), wk =   0.0219780
        k(   15) = (   0.4000000   0.4000000   0.4000000), wk =   0.0219780
        k(   16) = (   0.3750000   0.3750000   0.3750000), wk =   0.0219780
        k(   17) = (   0.3500000   0.3500000   0.3500000), wk =   0.0219780
        k(   18) = (   0.3250000   0.3250000   0.3250000), wk =   0.0219780
        k(   19) = (   0.3000000   0.3000000   0.3000000), wk =   0.0219780
        k(   20) = (   0.2750000   0.2750000   0.2750000), wk =   0.0219780
        k(   21) = (   0.2500000   0.2500000   0.2500000), wk =   0.0219780
        k(   22) = (   0.2250000   0.2250000   0.2250000), wk =   0.0219780
        k(   23) = (   0.2000000   0.2000000   0.2000000), wk =   0.0219780
        k(   24) = (   0.1750000   0.1750000   0.1750000), wk =   0.0219780
        k(   25) = (   0.1500000   0.1500000   0.1500000), wk =   0.0219780
        k(   26) = (   0.1250000   0.1250000   0.1250000), wk =   0.0219780
        k(   27) = (   0.1000000   0.1000000   0.1000000), wk =   0.0219780
        k(   28) = (   0.0750000   0.0750000   0.0750000), wk =   0.0219780
        k(   29) = (   0.0500000   0.0500000   0.0500000), wk =   0.0219780
        k(   30) = (   0.0250000   0.0250000   0.0250000), wk =   0.0219780
        k(   31) = (   0.0000000   0.0000000   0.0000000), wk =   0.0219780
        k(   32) = (   0.0500000   0.0000000   0.0000000), wk =   0.0219780
        k(   33) = (   0.1000000   0.0000000   0.0000000), wk =   0.0219780
        k(   34) = (   0.1500000   0.0000000   0.0000000), wk =   0.0219780
        k(   35) = (   0.2000000   0.0000000   0.0000000), wk =   0.0219780
        k(   36) = (   0.2500000   0.0000000   0.0000000), wk =   0.0219780
        k(   37) = (   0.3000000   0.0000000   0.0000000), wk =   0.0219780
        k(   38) = (   0.3500000   0.0000000   0.0000000), wk =   0.0219780
        k(   39) = (   0.4000000   0.0000000   0.0000000), wk =   0.0219780
        k(   40) = (   0.4500000   0.0000000   0.0000000), wk =   0.0219780
        k(   41) = (   0.5000000   0.0000000   0.0000000), wk =   0.0219780
        k(   42) = (   0.5000000   0.0500000   0.0000000), wk =   0.0219780
        k(   43) = (   0.5000000   0.1000000   0.0000000), wk =   0.0219780
        k(   44) = (   0.5000000   0.1500000   0.0000000), wk =   0.0219780
        k(   45) = (   0.5000000   0.2000000   0.0000000), wk =   0.0219780
        k(   46) = (   0.5000000   0.2500000   0.0000000), wk =   0.0219780
        k(   47) = (   0.5000000   0.3000000   0.0000000), wk =   0.0219780
        k(   48) = (   0.5000000   0.3500000   0.0000000), wk =   0.0219780
        k(   49) = (   0.5000000   0.4000000   0.0000000), wk =   0.0219780
        k(   50) = (   0.5000000   0.4500000   0.0000000), wk =   0.0219780
        k(   51) = (   0.5000000   0.5000000   0.0000000), wk =   0.0219780
        k(   52) = (   0.4750000   0.4750000   0.0000000), wk =   0.0219780
        k(   53) = (   0.4500000   0.4500000   0.0000000), wk =   0.0219780
        k(   54) = (   0.4250000   0.4250000   0.0000000), wk =   0.0219780
        k(   55) = (   0.4000000   0.4000000   0.0000000), wk =   0.0219780
        k(   56) = (   0.3750000   0.3750000   0.0000000), wk =   0.0219780
        k(   57) = (   0.3500000   0.3500000   0.0000000), wk =   0.0219780
        k(   58) = (   0.3250000   0.3250000   0.0000000), wk =   0.0219780
        k(   59) = (   0.3000000   0.3000000   0.0000000), wk =   0.0219780
        k(   60) = (   0.2750000   0.2750000   0.0000000), wk =   0.0219780
        k(   61) = (   0.2500000   0.2500000   0.0000000), wk =   0.0219780
        k(   62) = (   0.2250000   0.2250000   0.0000000), wk =   0.0219780
        k(   63) = (   0.2000000   0.2000000   0.0000000), wk =   0.0219780
        k(   64) = (   0.1750000   0.1750000   0.0000000), wk =   0.0219780
        k(   65) = (   0.1500000   0.1500000   0.0000000), wk =   0.0219780
        k(   66) = (   0.1250000   0.1250000   0.0000000), wk =   0.0219780
        k(   67) = (   0.1000000   0.1000000   0.0000000), wk =   0.0219780
        k(   68) = (   0.0750000   0.0750000   0.0000000), wk =   0.0219780
        k(   69) = (   0.0500000   0.0500000   0.0000000), wk =   0.0219780
        k(   70) = (   0.0250000   0.0250000   0.0000000), wk =   0.0219780
        k(   71) = (   0.0000000   0.0000000   0.0000000), wk =   0.0219780
        k(   72) = (   0.0250000   0.0250000   0.0250000), wk =   0.0219780
        k(   73) = (   0.0500000   0.0500000   0.0500000), wk =   0.0219780
        k(   74) = (   0.0750000   0.0750000   0.0750000), wk =   0.0219780
        k(   75) = (   0.1000000   0.1000000   0.1000000), wk =   0.0219780
        k(   76) = (   0.1250000   0.1250000   0.1250000), wk =   0.0219780
        k(   77) = (   0.1500000   0.1500000   0.1500000), wk =   0.0219780
        k(   78) = (   0.1750000   0.1750000   0.1750000), wk =   0.0219780
        k(   79) = (   0.2000000   0.2000000   0.2000000), wk =   0.0219780
        k(   80) = (   0.2250000   0.2250000   0.2250000), wk =   0.0219780
        k(   81) = (   0.2500000   0.2500000   0.2500000), wk =   0.0219780
        k(   82) = (   0.2750000   0.2750000   0.2750000), wk =   0.0219780
        k(   83) = (   0.3000000   0.3000000   0.3000000), wk =   0.0219780
        k(   84) = (   0.3250000   0.3250000   0.3250000), wk =   0.0219780
        k(   85) = (   0.3500000   0.3500000   0.3500000), wk =   0.0219780
        k(   86) = (   0.3750000   0.3750000   0.3750000), wk =   0.0219780
        k(   87) = (   0.4000000   0.4000000   0.4000000), wk =   0.0219780
        k(   88) = (   0.4250000   0.4250000   0.4250000), wk =   0.0219780
        k(   89) = (   0.4500000   0.4500000   0.4500000), wk =   0.0219780
        k(   90) = (   0.4750000   0.4750000   0.4750000), wk =   0.0219780
        k(   91) = (   0.5000000   0.5000000   0.5000000), wk =   0.0219780

     Dense  grid:    10443 G-vectors     FFT dimensions: (  27,  27,  27)

     Smooth grid:     7881 G-vectors     FFT dimensions: (  25,  25,  25)

     Estimated max dynamical RAM per process >       4.42 MB

     Estimated total dynamical RAM >      44.20 MB

     The potential is recalculated from file :
     ./work/POSCAR.save/charge-density

     Starting wfcs are   13 randomized atomic wfcs +   13 random wfcs
     Checking if some PAW data can be deallocated... 

     Band Structure Calculation
     Davidson diagonalization with overlap

     ethr =  6.64E-07,  avg # of iterations = 18.3

     total cpu time spent up to now is        3.8 secs

     End of band structure calculation

          k = 0.0000 0.5000 0.5000 (   992 PWs)   bands (ev):

   -24.6199  -8.2079  -8.2079  -6.7092   7.9022  10.4179  13.4526  13.4526
    15.0075  15.0075  18.0731  21.0032  22.1230  22.1230  22.2890  22.7989
    27.9279  30.3836  30.3836  33.9953  34.5878  34.6612  34.7338  34.7338
    39.5251  39.5251

          k = 0.0500 0.5000 0.5000 (  1008 PWs)   bands (ev):

   -24.6164  -8.2033  -8.2033  -6.7451   7.9246  10.5334  13.0793  13.0793
    15.4088  15.4088  18.0793  20.4386  22.1806  22.1806  22.8003  22.8367
    28.0240  30.3999  30.3999  33.8891  34.4681  34.5016  34.5016  34.6881
    39.8275  39.8772

          k = 0.1000 0.5000 0.5000 (   996 PWs)   bands (ev):

   -24.6060  -8.1896  -8.1896  -6.8476   7.9914  10.8751  12.4030  12.4030
    16.1626  16.1626  18.0977  19.5227  22.3572  22.3572  22.8012  23.6845
    28.3284  30.4479  30.4479  33.5941  33.9392  33.9392  34.1490  34.7681
    38.2100  39.3485

          k = 0.1500 0.5000 0.5000 (  1000 PWs)   bands (ev):

   -24.5898  -8.1682  -8.1682  -7.0034   8.0997  11.4278  11.7114  11.7114
    16.9632  16.9632  18.1265  18.5958  22.6626  22.6626  22.7910  24.4513
    28.8772  30.5244  30.5244  33.1636  33.2519  33.2519  33.7130  34.8993
    36.2437  38.7179

          k = 0.2000 0.5000 0.5000 (  1004 PWs)   bands (ev):

   -24.5692  -8.1411  -8.1411  -7.1935   8.2452  11.0702  11.0702  12.1699
    17.7146  17.7186  17.7186  18.1632  22.7487  23.1075  23.1075  25.0553
    29.6856  30.6237  30.6237  32.5661  32.5661  32.6506  33.2371  34.3640
    35.0780  38.1037

          k = 0.2500 0.5000 0.5000 (  1004 PWs)   bands (ev):

   -24.5463  -8.1107  -8.1107  -7.3968   8.4202  10.5036  10.5036  13.0756
    16.9042  18.2046  18.3795  18.3795  22.6392  23.6899  23.6899  25.4964
    30.7084  30.7343  30.7343  31.9558  31.9558  32.0373  32.7094  32.7749
    35.2978  37.5781

          k = 0.3000 0.5000 0.5000 (  1008 PWs)   bands (ev):

   -24.5231  -8.0800  -8.0800  -7.5932   8.6131  10.0249  10.0249  14.1160
    16.1845  18.2468  18.9192  18.9192  22.4081  24.3780  24.3780  25.8125
    30.8270  30.8270  30.9053  31.4915  31.4915  31.8103  31.8428  32.3618
    35.5480  37.2161

          k = 0.3500 0.5000 0.5000 (  1000 PWs)   bands (ev):

   -24.5021  -8.0520  -8.0520  -7.7648   8.8070   9.6437   9.6437  15.2585
    15.5773  18.2855  19.3315  19.3315  21.9862  25.0974  25.0974  26.0388
    29.6944  30.8155  30.8155  31.2943  31.2943  31.3432  32.0209  32.9258
    35.8103  37.1453

          k = 0.4000 0.5000 0.5000 (   992 PWs)   bands (ev):

   -24.4852  -8.0295  -8.0295  -7.8977   8.9782   9.3665   9.3665  15.1093
    16.4592  18.3167  19.6207  19.6207  21.3228  25.7346  25.7346  26.1947
    28.8092  30.7283  30.7283  31.0044  31.3561  31.3561  31.7674  33.7204
    36.0545  37.5733

          k = 0.4500 0.5000 0.5000 (   976 PWs)   bands (ev):

   -24.4744  -8.0150  -8.0150  -7.9814   9.0983   9.1983   9.1983  14.8104
    17.6316  18.3369  19.7925  19.7925  20.4626  26.1674  26.1674  26.2875
    28.2970  30.7093  30.7093  30.7919  31.4878  31.4878  31.6115  34.0991
    36.2358  36.6816

          k = 0.5000 0.5000 0.5000 (   968 PWs)   bands (ev):

   -24.4706  -8.0100  -8.0100  -8.0100   9.1419   9.1419   9.1419  14.7071
    18.3439  18.3439  19.8495  19.8495  19.8495  26.3184  26.3184  26.3184
    28.1329  30.7191  30.7191  30.7191  31.5589  31.5589  31.5589  34.1934
    36.3043  36.3043

          k = 0.4750 0.4750 0.4750 (   968 PWs)   bands (ev):

   -24.4734  -8.0061  -8.0049  -8.0049   9.1380   9.1697   9.1697  14.7850
    18.0252  18.0252  19.6876  20.1687  20.1687  26.2318  26.2391  26.2391
    28.2537  30.6355  30.6355  30.8865  31.4088  31.6122  31.6122  34.1323
    36.4699  36.4699

          k = 0.4500 0.4500 0.4500 (   992 PWs)   bands (ev):

   -24.4819  -7.9945  -7.9899  -7.9899   9.1292   9.2526   9.2526  15.0142
    17.4028  17.4028  19.2399  20.7876  20.7876  25.9878  26.0295  26.0295
    28.5999  30.3175  30.3175  31.0163  31.3439  31.8611  31.8611  33.9804
    36.9012  36.9013

          k = 0.4250 0.4250 0.4250 (   997 PWs)   bands (ev):

   -24.4957  -7.9750  -7.9648  -7.9648   9.1238   9.3899   9.3899  15.3831
    16.7158  16.7158  18.5905  21.4507  21.4507  25.6369  25.7556  25.7556
    29.1129  29.8014  29.8014  30.4875  31.9785  32.3054  32.3054  33.8308
    37.2706  37.2706

          k = 0.4000 0.4000 0.4000 (   991 PWs)   bands (ev):

   -24.5146  -7.9473  -7.9301  -7.9301   9.1311   9.5799   9.5799  15.8756
    16.0213  16.0213  17.8228  22.0624  22.0624  25.2345  25.4982  25.4982
    29.1956  29.1956  29.7210  29.9002  32.5458  32.8472  32.8472  33.9127
    36.9957  36.9957

          k = 0.3750 0.3750 0.3750 (   991 PWs)   bands (ev):

   -24.5380  -7.9117  -7.8862  -7.8862   9.1585   9.8201   9.8201  15.3382
    15.3382  16.4704  17.0042  22.5268  22.5268  24.8211  25.3513  25.3513
    28.5836  28.5836  29.2985  30.3749  32.6868  33.3822  33.3822  34.5692
    36.7398  36.7398

          k = 0.3500 0.3500 0.3500 (   994 PWs)   bands (ev):

   -24.5655  -7.8678  -7.8335  -7.8335   9.2085  10.1063  10.1063  14.6772
    14.6772  16.1660  17.1634  22.7395  22.7395  24.4254  25.3836  25.3836
    28.0529  28.0529  28.7061  31.0480  32.5759  33.7915  33.7915  35.6021
    36.7493  36.7493

          k = 0.3250 0.3250 0.3250 (   997 PWs)   bands (ev):

   -24.5963  -7.8159  -7.7729  -7.7729   9.2766  10.4315  10.4315  14.0485
    14.0485  15.3693  17.9074  22.6908  22.6908  24.0741  25.4855  25.4855
    27.7561  27.7561  28.1362  31.7237  32.4224  33.9964  33.9964  36.7627
    37.0690  37.0690

          k = 0.3000 0.3000 0.3000 (   979 PWs)   bands (ev):

   -24.6297  -7.7558  -7.7052  -7.7052   9.3484  10.7809  10.7809  13.4676
    13.4676  14.6402  18.6784  22.4809  22.4809  23.8020  25.3836  25.3836
    27.5967  27.8883  27.8883  32.2307  32.4310  34.0426  34.0426  37.5296
    37.5296  37.8345

          k = 0.2750 0.2750 0.2750 (   985 PWs)   bands (ev):

   -24.6649  -7.6884  -7.6317  -7.6317   9.3958  11.1168  11.1168  12.9721
    12.9721  14.0231  19.4153  22.2012  22.2012  23.6673  25.0415  25.0415
    27.0925  28.4073  28.4073  32.0975  33.0392  34.0258  34.0258  37.5409
    37.5829  37.5829

          k = 0.2500 0.2500 0.2500 (  1003 PWs)   bands (ev):

   -24.7010  -7.6143  -7.5539  -7.5539   9.3772  11.3229  11.3229  12.6766
    12.6766  13.5704  20.0200  21.9007  21.9007  23.7649  24.6104  24.6104
    26.6267  29.1173  29.1173  31.8982  33.5428  34.0027  34.0027  36.4988
    36.7897  36.7897

          k = 0.2250 0.2250 0.2250 (   991 PWs)   bands (ev):

   -24.7371  -7.5346  -7.4732  -7.4732   9.2506  11.2154  11.2154  12.7621
    12.7621  13.3306  20.3896  21.6030  21.6030  24.1844  24.1844  24.1943
    26.2017  29.8870  29.8870  31.5458  33.7008  33.9789  33.9789  35.7228
    35.7228  35.9771

          k = 0.2000 0.2000 0.2000 (   991 PWs)   bands (ev):

   -24.7723  -7.4510  -7.3918  -7.3918   9.0038  10.8877  10.8877  13.1299
    13.1299  13.3194  20.5183  21.3199  21.3199  23.8071  23.8071  24.9557
    25.8187  30.5897  30.5897  30.8906  33.5235  33.8593  33.8593  34.8677
    34.8677  36.1906

          k = 0.1750 0.1750 0.1750 (   991 PWs)   bands (ev):

   -24.8058  -7.3659  -7.3118  -7.3118   8.6676  10.5125  10.5125  13.5061
    13.5996  13.5996  20.4954  21.0574  21.0574  23.5043  23.5043  25.4791
    25.9507  29.9389  30.9246  30.9246  33.4155  33.6109  33.6109  34.6204
    34.6204  36.7434

          k = 0.1500 0.1500 0.1500 (   985 PWs)   bands (ev):

   -24.8368  -7.2818  -7.2354  -7.2354   8.2921  10.1533  10.1533  13.8367
    14.0969  14.0969  20.4059  20.8191  20.8191  23.2952  23.2952  25.1835
    27.0720  28.8621  30.4983  30.4983  33.4675  33.8963  33.8963  34.7309
    34.7309  37.3871

          k = 0.1250 0.1250 0.1250 (   982 PWs)   bands (ev):

   -24.8644  -7.2019  -7.1653  -7.1653   7.9214   9.8322   9.8322  14.2583
    14.5847  14.5847  20.2999  20.6075  20.6075  23.1973  23.1973  24.9325
    27.6420  28.3929  29.6008  29.6008  33.6456  34.6421  34.6421  34.9922
    34.9922  38.0296

          k = 0.1000 0.1000 0.1000 (   985 PWs)   bands (ev):

   -24.8879  -7.1299  -7.1038  -7.1038   7.5867   9.5598   9.5598  14.7230
    15.0339  15.0339  20.2043  20.4257  20.4257  23.2255  23.2255  24.7267
    26.6633  28.5904  28.5904  29.5331  33.9429  35.2148  35.2148  35.6864
    35.6864  38.5968

          k = 0.0750 0.0750 0.0750 (   991 PWs)   bands (ev):

   -24.9069  -7.0692  -7.0532  -7.0532   7.3087   9.3423   9.3423  15.1824
    15.4174  15.4174  20.1334  20.2774  20.2774  23.3907  23.3907  24.5663
    25.7485  27.5944  27.5944  30.6290  34.3973  35.6038  35.6038  36.6959
    36.6959  38.9217

          k = 0.0500 0.0500 0.0500 (   991 PWs)   bands (ev):

   -24.9208  -7.0230  -7.0155  -7.0155   7.1014   9.1841   9.1841  15.5810
    15.7105  15.7105  20.0927  20.1671  20.1671  23.6919  23.6919  24.4516
    25.0073  26.6716  26.6716  31.4930  35.0807  36.0277  36.0277  37.6838
    37.6838  38.7399

          k = 0.0250 0.0250 0.0250 (  1000 PWs)   bands (ev):

   -24.9293  -6.9941  -6.9922  -6.9922   6.9736   9.0880   9.0880  15.8572
    15.8942  15.8942  20.0779  20.0988  20.0988  24.0916  24.0916  24.3827
    24.5142  25.8892  25.8892  32.0120  35.9980  36.4659  36.4659  37.8535
    37.8536  38.1774

          k = 0.0000 0.0000 0.0000 (  1021 PWs)   bands (ev):

   -24.9322  -6.9843  -6.9843  -6.9843   6.9305   9.0557   9.0557  15.9567
    15.9567  15.9567  20.0756  20.0756  20.0756  24.3394  24.3597  24.3597
    24.3597  25.4919  25.4919  32.1784  36.7317  36.7317  36.7317  37.5896
    37.5896  37.5896

          k = 0.0500 0.0000 0.0000 (  1001 PWs)   bands (ev):

   -24.9284  -7.0249  -6.9809  -6.9809   6.9872   9.0713   9.1263  15.8084
    15.8084  15.9651  19.8310  20.2311  20.2311  23.6786  24.4510  24.4510
    24.5436  25.6293  26.2438  31.9734  35.9494  35.9494  37.0145  37.1467
    38.3441  38.3850

          k = 0.1000 0.0000 0.0000 (   993 PWs)   bands (ev):

   -24.9174  -7.1408  -6.9710  -6.9710   7.1460   9.1170   9.3385  15.4318
    15.4318  15.9899  19.2529  20.6207  20.6207  22.7027  24.7305  24.7305
    24.8780  26.1624  27.4324  31.4730  34.9147  34.9147  35.9477  36.7548
    37.7479  39.3407

          k = 0.1500 0.0000 0.0000 (   981 PWs)   bands (ev):

   -24.9002  -7.3161  -6.9555  -6.9555   7.3791   9.1903   9.6883  14.9484
    14.9484  16.0290  18.5740  21.1049  21.1049  21.7692  25.0858  25.2076
    25.2076  27.1079  28.7210  30.8563  33.9421  33.9421  34.1421  35.7164
    38.7535  39.8572

          k = 0.2000 0.0000 0.0000 (   984 PWs)   bands (ev):

   -24.8783  -7.5286  -6.9360  -6.9360   7.6565   9.2861  10.1510  14.4458
    14.4458  16.0791  17.9422  20.9151  21.5841  21.5841  25.2108  25.8745
    25.8745  28.2480  30.0727  30.2315  32.2849  33.0756  33.0756  34.8738
    39.9241  40.0529

          k = 0.2500 0.0000 0.0000 (   992 PWs)   bands (ev):

   -24.8539  -7.7544  -6.9142  -6.9142   7.9565   9.3976  10.6653  13.9743
    13.9743  16.1359  17.4646  20.1561  22.0150  22.0150  25.2461  26.6822
    26.6822  29.3784  29.6530  30.5827  31.4716  32.3625  32.3625  34.2385
    40.1285  40.1474

          k = 0.3000 0.0000 0.0000 (   988 PWs)   bands (ev):

   -24.8293  -7.9711  -6.8922  -6.8922   8.2654   9.5154  11.1297  13.5629
    13.5629  16.1942  17.2507  19.5055  22.3881  22.3881  25.0654  27.5186
    27.5186  29.0801  29.1505  30.3714  31.8940  31.8940  32.9015  34.0300
    40.1220  40.1770

          k = 0.3500 0.0000 0.0000 (   980 PWs)   bands (ev):

   -24.8070  -8.1595  -6.8722  -6.8722   8.5691   9.6277  11.4341  13.2289
    13.2289  16.2480  17.4015  18.9771  22.7020  22.7020  24.4416  28.1809
    28.1809  28.2285  28.7426  30.6840  31.8467  31.8467  34.3380  34.5829
    39.9319  40.0483

          k = 0.4000 0.0000 0.0000 (  1000 PWs)   bands (ev):

   -24.7891  -8.3049  -6.8564  -6.8564   8.8430   9.7216  11.5408  12.9835
    12.9835  16.2916  17.9335  18.5852  22.9482  22.9482  23.3740  27.9360
    28.4421  28.4838  28.4838  30.5398  32.3735  32.3735  35.7372  35.7998
    38.6751  38.6751

          k = 0.4500 0.0000 0.0000 (   996 PWs)   bands (ev):

   -24.7776  -8.3963  -6.8461  -6.8461   9.0453   9.7843  11.5247  12.8337
    12.8337  16.3200  18.3434  18.6980  22.2207  23.1092  23.1092  27.9225
    28.2582  28.5265  28.5265  30.3052  33.2832  33.2832  36.9974  37.2472
    37.2472  37.3328

          k = 0.5000 0.0000 0.0000 (   972 PWs)   bands (ev):

   -24.7735  -8.4275  -6.8425  -6.8425   9.1221   9.8064  11.5012  12.7834
    12.7834  16.3300  18.2616  19.1796  21.6033  23.1658  23.1658  27.9471
    28.1964  28.5154  28.5154  30.2016  33.8809  33.8809  36.4904  36.4904
    37.6931  38.7954

          k = 0.5000 0.0500 0.0000 (   994 PWs)   bands (ev):

   -24.7699  -8.4223  -6.8805  -6.8393   9.1902   9.8682  11.2667  12.7975
    12.9579  16.2138  18.4006  19.1641  21.6197  22.9708  23.3664  27.3609
    28.0054  28.2420  29.3787  30.7637  33.7203  33.8914  36.0946  36.5425
    37.1154  38.9488

          k = 0.5000 0.1000 0.0000 (   992 PWs)   bands (ev):

   -24.7592  -8.4073  -6.9890  -6.8300   9.3546  10.0862  10.7736  12.8390
    13.2863  15.9046  18.7960  19.1110  21.6666  22.5120  23.9291  26.4320
    27.1587  29.0034  30.3848  31.7334  33.3002  33.9229  35.4013  35.7309
    36.7030  39.0329

          k = 0.5000 0.1500 0.0000 (   984 PWs)   bands (ev):

   -24.7426  -8.3836  -7.1535  -6.8155   9.5346  10.2159  10.5189  12.9052
    13.6134  15.4849  19.0019  19.3867  21.7348  21.9968  24.7716  25.5612
    26.3650  30.0175  31.3625  32.5188  32.7194  33.9726  34.0980  34.9855
    36.9834  39.1347

          k = 0.5000 0.2000 0.0000 (   980 PWs)   bands (ev):

   -24.7214  -8.3535  -7.3536  -6.7971   9.6671   9.7014  11.1597  12.9917
    13.9123  15.0298  18.8157  20.0803  21.5658  21.8014  24.7649  25.7484
    25.8191  30.8562  32.1102  32.2644  32.5590  32.7125  34.0368  35.4241
    37.3976  39.2517

          k = 0.5000 0.2500 0.0000 (   982 PWs)   bands (ev):

   -24.6978  -8.3198  -7.5672  -6.7766   9.1634   9.8642  11.9509  13.0917
    14.1862  14.5910  18.5544  20.7603  21.2858  21.8167  24.0562  25.4387
    27.0196  29.8337  31.8709  32.0763  32.9549  33.0447  34.1099  36.4783
    37.9460  39.3048

          k = 0.5000 0.3000 0.0000 (   982 PWs)   bands (ev):

   -24.6739  -8.2857  -7.7728  -6.7559   8.7272  10.0252  12.8226  13.1966
    14.2016  14.4376  18.2669  21.1627  21.3133  21.7177  23.4484  25.5682
    28.1556  28.3399  31.3484  31.5185  33.6739  34.1854  34.3267  37.6337
    38.5882  38.8646

          k = 0.5000 0.3500 0.0000 (   992 PWs)   bands (ev):

   -24.6523  -8.2546  -7.9522  -6.7372   8.3739  10.1761  13.2960  13.6839
    13.8822  14.6613  18.0376  21.1785  21.4962  21.7039  22.9552  26.1256
    26.4819  29.7569  30.9352  31.0281  34.1473  34.2558  35.8149  37.5891
    38.5916  39.2242

          k = 0.5000 0.4000 0.0000 (  1000 PWs)   bands (ev):

   -24.6350  -8.2297  -8.0908  -6.7223   8.1142  10.3024  13.3785  13.6460
    14.4071  14.8434  17.9504  21.2544  21.3381  21.9434  22.5899  24.9279
    26.9096  30.6320  30.6604  31.2526  34.3142  34.4755  36.1897  37.3303
    37.8121  39.1698

          k = 0.5000 0.4500 0.0000 (   996 PWs)   bands (ev):

   -24.6238  -8.2135  -8.1781  -6.7126   7.9555  10.3876  13.4334  13.5013
    14.8615  14.9647  18.0122  21.0707  21.6930  22.0789  22.3650  23.5923
    27.6255  30.4462  30.4465  32.7992  34.3597  34.6695  35.0965  36.1787
    38.7480  39.4441

          k = 0.5000 0.5000 0.0000 (   992 PWs)   bands (ev):

   -24.6199  -8.2079  -8.2079  -6.7092   7.9022  10.4179  13.4526  13.4526
    15.0075  15.0075  18.0731  21.0032  22.1230  22.1230  22.2890  22.7989
    27.9279  30.3836  30.3836  33.9953  34.5878  34.6612  34.7338  34.7338
    39.5251  39.5251

          k = 0.4750 0.4750 0.0000 (   996 PWs)   bands (ev):

   -24.6219  -8.2023  -8.2013  -6.7109   7.9288  10.4026  13.4563  13.4636
    14.9592  14.9628  18.0378  21.0339  21.7447  22.2390  22.3270  23.2273
    27.7826  30.2051  30.6166  33.3735  33.9371  34.8817  35.3307  35.3870
    39.2447  39.3082

          k = 0.4500 0.4500 0.0000 (   996 PWs)   bands (ev):

   -24.6277  -8.1856  -8.1817  -6.7159   8.0081  10.3574  13.4678  13.4965
    14.8137  14.8313  17.9552  21.0012  21.3447  22.4405  22.5637  23.8912
    27.4738  29.7552  31.1965  32.4826  33.2245  35.4558  36.1057  36.1319
    38.6233  38.7464

          k = 0.4250 0.4250 0.0000 (   998 PWs)   bands (ev):

   -24.6371  -8.1578  -8.1494  -6.7241   8.1372  10.2846  13.4884  13.5512
    14.5734  14.6198  17.8722  20.5892  21.4317  22.6268  23.0458  24.5584
    27.1869  29.1753  31.5733  31.9677  32.5183  36.2325  36.8158  36.8324
    37.8865  37.9892

          k = 0.4000 0.4000 0.0000 (   994 PWs)   bands (ev):

   -24.6501  -8.1190  -8.1048  -6.7353   8.3109  10.1883  13.5201  13.6270
    14.2483  14.3390  17.8253  20.1661  21.6382  22.8818  23.6334  25.1398
    27.0707  28.5594  30.6712  31.8209  32.8533  36.8828  37.1395  37.3045
    37.3410  37.5020

          k = 0.3750 0.3750 0.0000 (   980 PWs)   bands (ev):

   -24.6661  -8.0696  -8.0488  -6.7492   8.5194  10.0759  13.5651  13.7235
    13.8568  14.0039  17.8298  19.8219  21.8468  23.1987  24.2801  25.5332
    27.2689  27.9648  29.7881  31.1339  33.8129  36.2085  36.2613  37.4605
    38.1370  38.1465

          k = 0.3500 0.3500 0.0000 (   993 PWs)   bands (ev):

   -24.6849  -8.0099  -7.9824  -6.7655   8.7429   9.9617  13.4205  13.6258
    13.6346  13.8397  17.8860  19.5663  22.0080  23.5672  24.9262  25.7754
    27.4505  27.7749  28.9357  30.4590  34.7434  35.3956  35.4722  37.3640
    38.6690  39.0473

          k = 0.3250 0.3250 0.0000 (   995 PWs)   bands (ev):

   -24.7059  -7.9406  -7.9067  -6.7839   8.9382   9.8782  12.9592  13.2590
    13.7048  13.9745  17.9882  19.3971  22.0913  23.9679  25.4267  26.0351
    27.1565  28.1333  28.4286  29.7985  34.4127  34.5836  36.0154  37.1390
    38.7751  39.0170

          k = 0.3000 0.3000 0.0000 (   993 PWs)   bands (ev):

   -24.7286  -7.8625  -7.8231  -6.8037   9.0253   9.8839  12.4890  12.9156
    13.8042  14.1265  18.1291  19.3057  22.0957  24.3572  25.5000  26.3992
    27.3554  27.4235  29.1064  29.1542  33.6431  33.7936  36.8642  37.0434
    37.7844  39.1114

          k = 0.2750 0.2750 0.0000 (   989 PWs)   bands (ev):

   -24.7525  -7.7767  -7.7334  -6.8246   8.9610   9.9829  12.0227  12.6597
    13.9256  14.2938  18.3019  19.2801  22.0470  24.6193  25.2252  26.8644
    26.9202  27.9486  28.5290  29.7073  32.9940  33.0517  36.5787  36.5835
    38.2429  38.9790

          k = 0.2500 0.2500 0.0000 (   995 PWs)   bands (ev):

   -24.7769  -7.6849  -7.6396  -6.8462   8.7968  10.0669  11.5697  12.5614
    14.0699  14.4740  18.4999  19.3064  21.9807  24.5406  24.8682  26.8352
    27.3761  27.9259  28.6215  30.0842  32.4126  32.6245  35.5095  36.3029
    38.7156  39.2083

          k = 0.2250 0.2250 0.0000 (   993 PWs)   bands (ev):

   -24.8013  -7.5888  -7.5436  -6.8677   8.5822  10.0474  11.1382  12.6701
    14.2375  14.6644  18.7167  19.3693  21.9306  24.1053  24.5251  27.1819
    27.3490  27.8117  29.1432  30.1697  32.0178  32.5824  34.5717  36.0491
    38.4018  39.1641

          k = 0.2000 0.2000 0.0000 (   981 PWs)   bands (ev):

   -24.8251  -7.4906  -7.4478  -6.8887   8.3400   9.9273  10.7344  12.9663
    14.4278  14.8612  18.9446  19.4529  21.9252  23.5178  24.2280  26.8028
    27.7527  27.9329  29.2394  30.3034  32.1168  32.2959  34.2522  35.8262
    38.0829  38.8774

          k = 0.1750 0.1750 0.0000 (   985 PWs)   bands (ev):

   -24.8476  -7.3932  -7.3548  -6.9087   8.0842   9.7582  10.3640  13.3866
    14.6389  15.0602  19.1749  19.5426  21.9876  22.8963  23.9926  26.2928
    27.6245  28.4250  28.8952  30.7763  31.4513  32.7167  34.6934  35.6423
    37.7819  38.6179

          k = 0.1500 0.1500 0.0000 (   979 PWs)   bands (ev):

   -24.8684  -7.2994  -7.2670  -6.9272   7.8276   9.5832  10.0321  13.8725
    14.8672  15.2558  19.3973  19.6287  22.1341  22.2869  23.8309  25.8253
    27.0775  28.3530  29.1457  30.3795  31.5640  33.5726  35.4017  35.5077
    37.5110  38.3919

          k = 0.1250 0.1250 0.0000 (   981 PWs)   bands (ev):

   -24.8869  -7.2125  -7.1871  -6.9437   7.5832   9.4246   9.7429  14.3798
    15.1069  15.4416  19.6005  19.7096  21.7128  22.3711  23.7526  25.4077
    26.4542  27.7550  29.3537  29.8806  32.4252  34.5410  35.4366  36.1854
    37.2765  38.2041

          k = 0.1000 0.1000 0.0000 (   981 PWs)   bands (ev):

   -24.9026  -7.1355  -7.1177  -6.9578   7.3640   9.2919   9.5005  14.8709
    15.3485  15.6103  19.7736  19.7906  21.1915  22.6964  23.7642  25.0482
    25.8313  27.1575  28.3611  30.5935  33.3604  35.4520  35.5625  36.9796
    37.0819  38.0622

          k = 0.0750 0.0750 0.0000 (   991 PWs)   bands (ev):

   -24.9153  -7.0718  -7.0610  -6.9692   7.1812   9.1883   9.3081  15.3086
    15.5776  15.7536  19.8779  19.9088  20.7417  23.1017  23.8654  24.7556
    25.2572  26.5893  27.4304  31.2357  34.3304  35.5879  36.5853  36.9293
    37.7168  37.9957

          k = 0.0500 0.0500 0.0000 (   997 PWs)   bands (ev):

   -24.9246  -7.0239  -7.0189  -6.9775   7.0441   9.1145   9.1686  15.6559
    15.7731  15.8636  19.9690  20.0031  20.3872  23.5719  24.0422  24.5387
    24.7799  26.0770  26.5827  31.7461  35.3000  35.8839  36.8196  37.3831
    38.1081  38.2191

          k = 0.0250 0.0250 0.0000 (  1001 PWs)   bands (ev):

   -24.9303  -6.9943  -6.9930  -6.9826   6.9592   9.0704   9.0841  15.8795
    15.9080  15.9329  20.0450  20.0578  20.1564  24.0651  24.2490  24.4049
    24.4556  25.6693  25.8623  32.0693  36.2019  36.3470  36.7537  37.5740
    37.8950  38.1082

          k = 0.0000 0.0000 0.0000 (  1021 PWs)   bands (ev):

   -24.9322  -6.9843  -6.9843  -6.9843   6.9305   9.0557   9.0557  15.9567
    15.9567  15.9567  20.0756  20.0756  20.0756  24.3394  24.3597  24.3597
    24.3597  25.4919  25.4919  32.1784  36.7317  36.7317  36.7317  37.5896
    37.5896  37.5896

          k = 0.0250 0.0250 0.0250 (  1000 PWs)   bands (ev):

   -24.9293  -6.9941  -6.9922  -6.9922   6.9736   9.0880   9.0880  15.8572
    15.8942  15.8942  20.0779  20.0988  20.0988  24.0916  24.0916  24.3827
    24.5142  25.8892  25.8892  32.0120  35.9980  36.4659  36.4659  37.8535
    37.8535  38.1774

          k = 0.0500 0.0500 0.0500 (   991 PWs)   bands (ev):

   -24.9208  -7.0230  -7.0155  -7.0155   7.1014   9.1841   9.1841  15.5810
    15.7105  15.7105  20.0927  20.1671  20.1671  23.6919  23.6919  24.4516
    25.0073  26.6716  26.6716  31.4930  35.0807  36.0277  36.0277  37.6838
    37.6838  38.7400

          k = 0.0750 0.0750 0.0750 (   991 PWs)   bands (ev):

   -24.9069  -7.0692  -7.0532  -7.0532   7.3087   9.3423   9.3423  15.1824
    15.4174  15.4174  20.1334  20.2774  20.2774  23.3907  23.3907  24.5663
    25.7485  27.5944  27.5944  30.6290  34.3973  35.6038  35.6038  36.6959
    36.6959  38.9217

          k = 0.1000 0.1000 0.1000 (   985 PWs)   bands (ev):

   -24.8879  -7.1299  -7.1038  -7.1038   7.5867   9.5598   9.5598  14.7230
    15.0339  15.0339  20.2043  20.4257  20.4257  23.2255  23.2255  24.7267
    26.6633  28.5904  28.5904  29.5331  33.9429  35.2148  35.2148  35.6864
    35.6864  38.5968

          k = 0.1250 0.1250 0.1250 (   982 PWs)   bands (ev):

   -24.8644  -7.2019  -7.1653  -7.1653   7.9214   9.8322   9.8322  14.2583
    14.5847  14.5847  20.2999  20.6075  20.6075  23.1973  23.1973  24.9325
    27.6420  28.3929  29.6008  29.6008  33.6456  34.6421  34.6421  34.9922
    34.9922  38.0296

          k = 0.1500 0.1500 0.1500 (   985 PWs)   bands (ev):

   -24.8368  -7.2818  -7.2354  -7.2354   8.2921  10.1533  10.1533  13.8367
    14.0969  14.0969  20.4059  20.8191  20.8191  23.2952  23.2952  25.1835
    27.0720  28.8621  30.4983  30.4983  33.4675  33.8963  33.8963  34.7309
    34.7309  37.3871

          k = 0.1750 0.1750 0.1750 (   991 PWs)   bands (ev):

   -24.8058  -7.3659  -7.3118  -7.3118   8.6676  10.5125  10.5125  13.5061
    13.5996  13.5996  20.4954  21.0574  21.0574  23.5043  23.5043  25.4791
    25.9507  29.9389  30.9246  30.9246  33.4155  33.6109  33.6109  34.6204
    34.6204  36.7434

          k = 0.2000 0.2000 0.2000 (   991 PWs)   bands (ev):

   -24.7723  -7.4510  -7.3918  -7.3918   9.0038  10.8877  10.8877  13.1299
    13.1299  13.3194  20.5183  21.3199  21.3199  23.8071  23.8071  24.9557
    25.8187  30.5897  30.5897  30.8906  33.5235  33.8593  33.8593  34.8677
    34.8677  36.1906

          k = 0.2250 0.2250 0.2250 (   991 PWs)   bands (ev):

   -24.7371  -7.5346  -7.4732  -7.4732   9.2506  11.2154  11.2154  12.7621
    12.7621  13.3306  20.3896  21.6030  21.6030  24.1844  24.1844  24.1943
    26.2017  29.8870  29.8870  31.5458  33.7008  33.9789  33.9789  35.7228
    35.7228  35.9771

          k = 0.2500 0.2500 0.2500 (  1003 PWs)   bands (ev):

   -24.7010  -7.6143  -7.5539  -7.5539   9.3772  11.3229  11.3229  12.6766
    12.6766  13.5704  20.0200  21.9007  21.9007  23.7649  24.6104  24.6104
    26.6267  29.1173  29.1173  31.8982  33.5428  34.0027  34.0027  36.4988
    36.7897  36.7897

          k = 0.2750 0.2750 0.2750 (   985 PWs)   bands (ev):

   -24.6649  -7.6884  -7.6317  -7.6317   9.3958  11.1168  11.1168  12.9721
    12.9721  14.0231  19.4153  22.2012  22.2012  23.6673  25.0415  25.0415
    27.0925  28.4073  28.4073  32.0975  33.0392  34.0258  34.0258  37.5409
    37.5829  37.5829

          k = 0.3000 0.3000 0.3000 (   979 PWs)   bands (ev):

   -24.6297  -7.7558  -7.7052  -7.7052   9.3484  10.7809  10.7809  13.4676
    13.4676  14.6402  18.6784  22.4809  22.4809  23.8020  25.3836  25.3836
    27.5967  27.8883  27.8883  32.2307  32.4310  34.0426  34.0426  37.5296
    37.5296  37.8345

          k = 0.3250 0.3250 0.3250 (   997 PWs)   bands (ev):

   -24.5963  -7.8159  -7.7729  -7.7729   9.2766  10.4315  10.4315  14.0485
    14.0485  15.3693  17.9074  22.6908  22.6908  24.0741  25.4855  25.4855
    27.7561  27.7561  28.1362  31.7237  32.4224  33.9964  33.9964  36.7627
    37.0690  37.0690

          k = 0.3500 0.3500 0.3500 (   994 PWs)   bands (ev):

   -24.5655  -7.8678  -7.8335  -7.8335   9.2085  10.1063  10.1063  14.6772
    14.6772  16.1660  17.1634  22.7395  22.7395  24.4254  25.3836  25.3836
    28.0529  28.0529  28.7061  31.0480  32.5759  33.7915  33.7915  35.6021
    36.7493  36.7493

          k = 0.3750 0.3750 0.3750 (   991 PWs)   bands (ev):

   -24.5380  -7.9117  -7.8862  -7.8862   9.1585   9.8201   9.8201  15.3382
    15.3382  16.4704  17.0042  22.5268  22.5268  24.8211  25.3513  25.3513
    28.5836  28.5836  29.2985  30.3749  32.6868  33.3822  33.3822  34.5692
    36.7398  36.7398

          k = 0.4000 0.4000 0.4000 (   991 PWs)   bands (ev):

   -24.5146  -7.9473  -7.9301  -7.9301   9.1311   9.5799   9.5799  15.8756
    16.0213  16.0213  17.8228  22.0624  22.0624  25.2345  25.4982  25.4982
    29.1956  29.1956  29.7210  29.9002  32.5458  32.8472  32.8472  33.9127
    36.9957  36.9957

          k = 0.4250 0.4250 0.4250 (   997 PWs)   bands (ev):

   -24.4957  -7.9750  -7.9648  -7.9648   9.1238   9.3899   9.3899  15.3831
    16.7158  16.7158  18.5905  21.4507  21.4507  25.6369  25.7556  25.7556
    29.1129  29.8014  29.8014  30.4875  31.9785  32.3054  32.3054  33.8308
    37.2706  37.2706

          k = 0.4500 0.4500 0.4500 (   992 PWs)   bands (ev):

   -24.4819  -7.9945  -7.9899  -7.9899   9.1292   9.2526   9.2526  15.0142
    17.4028  17.4028  19.2399  20.7876  20.7876  25.9878  26.0295  26.0295
    28.5999  30.3175  30.3175  31.0163  31.3439  31.8611  31.8611  33.9804
    36.9012  36.9012

          k = 0.4750 0.4750 0.4750 (   968 PWs)   bands (ev):

   -24.4734  -8.0061  -8.0049  -8.0049   9.1380   9.1697   9.1697  14.7850
    18.0252  18.0252  19.6876  20.1687  20.1687  26.2318  26.2391  26.2391
    28.2537  30.6355  30.6355  30.8865  31.4088  31.6122  31.6122  34.1323
    36.4699  36.4700

          k = 0.5000 0.5000 0.5000 (   968 PWs)   bands (ev):

   -24.4706  -8.0100  -8.0100  -8.0100   9.1419   9.1419   9.1419  14.7071
    18.3439  18.3439  19.8495  19.8495  19.8495  26.3184  26.3184  26.3184
    28.1329  30.7191  30.7191  30.7191  31.5589  31.5589  31.5589  34.1934
    36.3043  36.3043

     Writing all to output data dir ./work/POSCAR.save/

     init_run     :      0.17s CPU      0.19s WALL (       1 calls)
     electrons    :      3.06s CPU      3.36s WALL (       1 calls)

     Called by init_run:
     wfcinit      :      0.00s CPU      0.01s WALL (       1 calls)
     potinit      :      0.07s CPU      0.08s WALL (       1 calls)
     hinit0       :      0.08s CPU      0.08s WALL (       1 calls)

     Called by electrons:
     c_bands      :      3.06s CPU      3.36s WALL (       1 calls)
     v_of_rho     :      0.00s CPU      0.00s WALL (       1 calls)
     newd         :      0.00s CPU      0.00s WALL (       1 calls)
     PAW_pot      :      0.04s CPU      0.04s WALL (       1 calls)

     Called by c_bands:
     init_us_2    :      0.00s CPU      0.00s WALL (      91 calls)
     init_us_2:cp :      0.00s CPU      0.00s WALL (      91 calls)
     cegterg      :      2.85s CPU      2.91s WALL (     115 calls)

     Called by *egterg:
     cdiaghg      :      1.07s CPU      1.08s WALL (    1759 calls)
     h_psi        :      1.44s CPU      1.48s WALL (    1874 calls)
     s_psi        :      0.02s CPU      0.02s WALL (    1874 calls)
     g_psi        :      0.01s CPU      0.01s WALL (    1668 calls)

     Called by h_psi:
     h_psi:calbec :      0.07s CPU      0.07s WALL (    1874 calls)
     vloc_psi     :      1.34s CPU      1.37s WALL (    1874 calls)
     add_vuspsi   :      0.02s CPU      0.02s WALL (    1874 calls)

     General routines
     calbec       :      0.07s CPU      0.07s WALL (    1874 calls)
     fft          :      0.05s CPU      0.05s WALL (      13 calls)
     ffts         :      0.03s CPU      0.03s WALL (       1 calls)
     fftw         :      1.22s CPU      1.25s WALL (   51482 calls)
     interpolate  :      0.03s CPU      0.03s WALL (       1 calls)
     davcio       :      0.00s CPU      0.17s WALL (     182 calls)

     Parallel routines

     PWSCF        :      3.55s CPU      4.72s WALL


   This run was terminated on:  22:41:15  15May2024            

=------------------------------------------------------------------------------=
   JOB DONE.
=------------------------------------------------------------------------------=
