
     Program PWSCF v.7.1 starts on 15May2024 at 22:41: 7 

     This program is part of the open-source Quantum ESPRESSO suite
     for quantum simulation of materials; please cite
         "P. Giannozzi et al., J. Phys.:Condens. Matter 21 395502 (2009);
         "P. Giannozzi et al., J. Phys.:Condens. Matter 29 465901 (2017);
         "P. Giannozzi et al., J. Chem. Phys. 152 154105 (2020);
          URL http://www.quantum-espresso.org", 
     in publications or presentations arising from this work. More details at
     http://www.quantum-espresso.org/quote

     Parallel version (MPI & OpenMP), running on      10 processor cores
     Number of MPI processes:                10
     Threads/MPI process:                     1

     MPI processes distributed on     1 nodes
     14559 MiB available memory on the printing compute node when the environment starts

     Waiting for input...
     Reading input from standard input

     Current dimensions of program PWSCF are:
     Max number of different atomic species (ntypx) = 10
     Max number of k-points (npk) =  40000
     Max angular momentum in pseudopotentials (lmaxx) =  4
     file Ce.pbe-spdn-kjpaw_psl.1.0.0.UPF: wavefunction(s)  5D renormalized
     Message from routine setup:
     using ibrav=0 with symmetry is DISCOURAGED, use correct ibrav instead

     R & G space division:  proc/nbgrp/npool/nimage =      10
     Subspace diagonalization in iterative solution of the eigenvalue problem:
     a serial algorithm will be used


     Parallelization info
     --------------------
     sticks:   dense  smooth     PW     G-vecs:    dense   smooth      PW
     Min          57      48     14                 1043      788     136
     Max          58      49     15                 1046      789     137
     Sum         577     481    145                10443     7881    1365

     Using Slab Decomposition



     bravais-lattice index     =            0
     lattice parameter (alat)  =       6.3859  a.u.
     unit-cell volume          =     260.4099 (a.u.)^3
     number of atoms/cell      =            1
     number of atomic types    =            1
     number of electrons       =        11.00
     number of Kohn-Sham states=           26
     kinetic-energy cutoff     =      37.0000  Ry
     charge density cutoff     =     179.0000  Ry
     scf convergence threshold =      7.3E-05
     mixing beta               =       0.7000
     number of iterations used =            8  plain     mixing
     Exchange-correlation= SLA  PW   PBX  PBC
                           (   1   4   3   4   0   0   0)

     celldm(1)=   6.385857  celldm(2)=   0.000000  celldm(3)=   0.000000
     celldm(4)=   0.000000  celldm(5)=   0.000000  celldm(6)=   0.000000

     crystal axes: (cart. coord. in units of alat)
               a(1) = (   1.000000   0.000000   0.000000 )  
               a(2) = (   0.000000   1.000000   0.000000 )  
               a(3) = (   0.000000   0.000000   1.000000 )  

     reciprocal axes: (cart. coord. in units 2 pi/alat)
               b(1) = (  1.000000  0.000000  0.000000 )  
               b(2) = (  0.000000  1.000000  0.000000 )  
               b(3) = (  0.000000  0.000000  1.000000 )  


     PseudoPot. # 1 for Ce read from file:
     ./../../../../pseudo/psl100_PBE/Ce.pbe-spdn-kjpaw_psl.1.0.0.UPF
     MD5 check sum: 1a25380276e46fcecd5a173acdad072c
     Pseudo is Projector augmented-wave + core cor, Zval = 11.0
     Generated using 'atomic' code by A. Dal Corso  v.7.2
     Shape of augmentation charge: PSQ
     Using radial grid of 1255 points,  6 beta functions with: 
                l(1) =   0
                l(2) =   0
                l(3) =   1
                l(4) =   1
                l(5) =   2
                l(6) =   2
     Q(r) pseudized with 0 coefficients 


     atomic species   valence    mass     pseudopotential
        Ce            11.00   140.11600     Ce( 1.00)

     48 Sym. Ops., with inversion, found



   Cartesian axes

     site n.     atom                  positions (alat units)
         1           Ce  tau(   1) = (   0.0000000   0.0000000   0.0000000  )

     number of k points=    35  Methfessel-Paxton smearing, width (Ry)=  0.0200
                       cart. coord. in units 2pi/alat
        k(    1) = (   0.0000000   0.0000000   0.0000000), wk =   0.0027435
        k(    2) = (   0.0000000   0.0000000   0.1111111), wk =   0.0164609
        k(    3) = (   0.0000000   0.0000000   0.2222222), wk =   0.0164609
        k(    4) = (   0.0000000   0.0000000   0.3333333), wk =   0.0164609
        k(    5) = (   0.0000000   0.0000000   0.4444444), wk =   0.0164609
        k(    6) = (   0.0000000   0.1111111   0.1111111), wk =   0.0329218
        k(    7) = (   0.0000000   0.1111111   0.2222222), wk =   0.0658436
        k(    8) = (   0.0000000   0.1111111   0.3333333), wk =   0.0658436
        k(    9) = (   0.0000000   0.1111111   0.4444444), wk =   0.0658436
        k(   10) = (   0.0000000   0.2222222   0.2222222), wk =   0.0329218
        k(   11) = (   0.0000000   0.2222222   0.3333333), wk =   0.0658436
        k(   12) = (   0.0000000   0.2222222   0.4444444), wk =   0.0658436
        k(   13) = (   0.0000000   0.3333333   0.3333333), wk =   0.0329218
        k(   14) = (   0.0000000   0.3333333   0.4444444), wk =   0.0658436
        k(   15) = (   0.0000000   0.4444444   0.4444444), wk =   0.0329218
        k(   16) = (   0.1111111   0.1111111   0.1111111), wk =   0.0219479
        k(   17) = (   0.1111111   0.1111111   0.2222222), wk =   0.0658436
        k(   18) = (   0.1111111   0.1111111   0.3333333), wk =   0.0658436
        k(   19) = (   0.1111111   0.1111111   0.4444444), wk =   0.0658436
        k(   20) = (   0.1111111   0.2222222   0.2222222), wk =   0.0658436
        k(   21) = (   0.1111111   0.2222222   0.3333333), wk =   0.1316872
        k(   22) = (   0.1111111   0.2222222   0.4444444), wk =   0.1316872
        k(   23) = (   0.1111111   0.3333333   0.3333333), wk =   0.0658436
        k(   24) = (   0.1111111   0.3333333   0.4444444), wk =   0.1316872
        k(   25) = (   0.1111111   0.4444444   0.4444444), wk =   0.0658436
        k(   26) = (   0.2222222   0.2222222   0.2222222), wk =   0.0219479
        k(   27) = (   0.2222222   0.2222222   0.3333333), wk =   0.0658436
        k(   28) = (   0.2222222   0.2222222   0.4444444), wk =   0.0658436
        k(   29) = (   0.2222222   0.3333333   0.3333333), wk =   0.0658436
        k(   30) = (   0.2222222   0.3333333   0.4444444), wk =   0.1316872
        k(   31) = (   0.2222222   0.4444444   0.4444444), wk =   0.0658436
        k(   32) = (   0.3333333   0.3333333   0.3333333), wk =   0.0219479
        k(   33) = (   0.3333333   0.3333333   0.4444444), wk =   0.0658436
        k(   34) = (   0.3333333   0.4444444   0.4444444), wk =   0.0658436
        k(   35) = (   0.4444444   0.4444444   0.4444444), wk =   0.0219479

     Dense  grid:    10443 G-vectors     FFT dimensions: (  27,  27,  27)

     Smooth grid:     7881 G-vectors     FFT dimensions: (  25,  25,  25)

     Estimated max dynamical RAM per process >       6.08 MB

     Estimated total dynamical RAM >      60.83 MB

     Initial potential from superposition of free atoms

     starting charge      10.9735, renormalised to      11.0000
     Starting wfcs are   13 randomized atomic wfcs +   13 random wfcs
     Checking if some PAW data can be deallocated... 

     total cpu time spent up to now is        1.0 secs

     per-process dynamical memory:    13.8 Mb

     Self-consistent Calculation

     iteration #  1     ecut=    37.00 Ry     beta= 0.70
     Davidson diagonalization with overlap
     ethr =  1.00E-02,  avg # of iterations =  7.0

     Threshold (ethr) on eigenvalues was too large:
     Diagonalizing with lowered threshold

     Davidson diagonalization with overlap
     ethr =  4.37E-05,  avg # of iterations =  3.7

     total cpu time spent up to now is        2.0 secs

     total energy              =    -471.69942307 Ry
     estimated scf accuracy    <       0.00498255 Ry

     iteration #  2     ecut=    37.00 Ry     beta= 0.70
     Davidson diagonalization with overlap
     ethr =  4.53E-05,  avg # of iterations =  1.7

     total cpu time spent up to now is        2.3 secs

     total energy              =    -471.70054090 Ry
     estimated scf accuracy    <       0.00030517 Ry

     iteration #  3     ecut=    37.00 Ry     beta= 0.70
     Davidson diagonalization with overlap
     ethr =  2.77E-06,  avg # of iterations =  2.9

     total cpu time spent up to now is        2.7 secs

     End of self-consistent calculation

          k = 0.0000 0.0000 0.0000 (  1021 PWs)   bands (ev):

   -24.9265  -6.9804  -6.9804  -6.9804   6.9296   9.0558   9.0558  15.9580
    15.9580  15.9580  20.0731  20.0731  20.0731  24.3445  24.3570  24.3570
    24.3570  25.4924  25.4924  32.1767  36.7286  36.7286  36.7287  37.5922
    37.5922  37.5922

          k = 0.0000 0.0000 0.1111 (   981 PWs)   bands (ev):

   -24.9083  -7.1715  -6.9640  -6.9640   7.1916   9.1312   9.4049  15.3306
    15.3306  15.9989  19.1029  20.7225  20.7225  22.4879  24.8170  24.8170
    24.9384  26.3450  27.7116  31.3389  34.6904  34.6905  35.5743  36.4959
    37.9503  39.5021

          k = 0.0000 0.0000 0.2222 (   984 PWs)   bands (ev):

   -24.8619  -7.6251  -6.9224  -6.9224   7.7872   9.3344  10.3787  14.2305
    14.2305  16.1053  17.7041  20.5636  21.7803  21.7803  25.2445  26.2196
    26.2196  28.7687  29.9640  30.6890  31.4974  32.7350  32.7350  34.5606
    40.1051  40.1126

          k = 0.0000 0.0000 0.3333 (   980 PWs)   bands (ev):

   -24.8082  -8.0975  -6.8745  -6.8745   8.4688   9.5919  11.3558  13.3306
    13.3306  16.2325  17.3069  19.1370  22.6015  22.6015  24.7106  27.9954
    27.9954  28.4441  28.8643  30.6498  31.8005  31.8005  33.8602  34.3089
    40.0843  40.0952

          k = 0.0000 0.0000 0.4444 (   996 PWs)   bands (ev):

   -24.7726  -8.3859  -6.8428  -6.8428   9.0269   9.7795  11.5296  12.8451
    12.8451  16.3194  18.3606  18.6127  22.3389  23.0930  23.0930  27.9196
    28.2696  28.5291  28.5291  30.3311  33.1770  33.1770  36.8706  37.1549
    37.3885  37.3886

          k = 0.0000 0.1111 0.1111 (   981 PWs)   bands (ev):

   -24.8902  -7.1644  -7.1432  -6.9478   7.4568   9.3475   9.6023  14.6573
    15.2423  15.5389  19.6990  19.7539  21.4138  22.5402  23.7455  25.1981
    26.1081  27.4204  28.7955  30.2799  32.9389  35.1056  35.4328  36.6294
    37.1603  38.1208

          k = 0.0000 0.1111 0.2222 (   984 PWs)   bands (ev):

   -24.8440  -7.6050  -7.1082  -6.9065   8.0450   9.6029  10.4856  13.5823
    14.2765  15.5565  18.2608  20.6395  21.1258  22.5834  25.0273  26.4265
    26.7742  28.7741  29.3422  31.0933  31.4117  31.7393  34.2205  36.3009
    36.5987  39.2002

          k = 0.0000 0.1111 0.3333 (   984 PWs)   bands (ev):

   -24.7905  -8.0745  -7.0564  -6.8589   8.7097   9.8721  11.1256  13.1834
    13.3935  15.7013  17.6223  19.7771  21.3903  23.4656  25.5839  26.9207
    27.0088  28.8778  29.0157  30.3029  32.3079  33.0738  33.8760  35.8056
    36.8724  39.9301

          k = 0.0000 0.1111 0.4444 (   990 PWs)   bands (ev):

   -24.7551  -8.3612  -7.0221  -6.8275   9.2872  10.1063  10.7737  12.9130
    13.3501  15.8045  18.5868  19.0620  21.7776  22.9073  24.0085  26.3410
    27.0473  29.1216  30.4711  31.6223  32.8457  33.4455  35.2046  36.0934
    37.5643  38.0945

          k = 0.0000 0.2222 0.2222 (   993 PWs)   bands (ev):

   -24.7982  -7.5743  -7.5292  -6.8660   8.5558  10.0384  11.0921  12.6942
    14.2577  14.6865  18.7404  19.3779  21.9278  24.0436  24.4870  27.2346
    27.2853  27.8467  29.1798  30.1743  31.9997  32.5811  34.4927  36.0235
    38.3635  39.1337

          k = 0.0000 0.2222 0.3333 (   996 PWs)   bands (ev):

   -24.7452  -8.0153  -7.4900  -6.8192   9.0437  10.0113  11.5356  13.1433
    13.5579  14.6964  18.0101  19.8680  21.3389  24.6729  25.3819  26.3952
    26.6305  27.7143  29.2947  30.9128  31.9659  34.1309  35.4061  36.6941
    37.3062  39.3869

          k = 0.0000 0.2222 0.4444 (   980 PWs)   bands (ev):

   -24.7100  -8.2978  -7.4500  -6.7883   9.3827   9.8120  11.4986  13.0948
    13.9561  14.8135  18.4471  20.4242  20.9359  22.8212  24.4862  25.6904
    26.3226  29.9511  31.4948  31.8992  32.2058  33.8271  34.4288  35.8719
    38.1545  38.4812

          k = 0.0000 0.3333 0.3333 (   989 PWs)   bands (ev):

   -24.6927  -7.9613  -7.9294  -6.7734   8.8801   9.8990  13.1148  13.3826
    13.6763  13.9277  17.9492  19.4438  22.0758  23.8311  25.2924  25.9386
    27.2123  28.2035  28.3914  30.0164  34.6642  34.8521  35.6870  37.2239
    38.9270  39.1057

          k = 0.0000 0.3333 0.4444 (   993 PWs)   bands (ev):

   -24.6580  -8.2240  -7.8990  -6.7431   8.5322  10.0926  13.3218  13.3826
    13.9612  14.4550  18.0120  20.3605  21.6989  22.6834  23.1896  25.9683
    27.0350  29.2143  29.6055  32.5338  32.7089  35.2464  35.6448  37.7184
    38.2567  39.0232

          k = 0.0000 0.4444 0.4444 (   996 PWs)   bands (ev):

   -24.6235  -8.1770  -8.1722  -6.7133   8.0318  10.3433  13.4714  13.5068
    14.7676  14.7901  17.9368  20.9309  21.3367  22.4737  22.6587  24.0416
    27.4031  29.6318  31.3544  32.2790  33.0669  35.6131  36.2650  36.2998
    38.4652  38.5924

          k = 0.1111 0.1111 0.1111 (   982 PWs)   bands (ev):

   -24.8722  -7.1569  -7.1260  -7.1260   7.7288   9.6745   9.6745  14.5143
    14.8412  14.8412  20.2453  20.5011  20.5011  23.1949  23.1949  24.8100
    27.1078  29.0119  29.0420  29.0420  33.7957  35.0250  35.0250  35.2918
    35.2918  38.3621

          k = 0.1111 0.1111 0.2222 (   988 PWs)   bands (ev):

   -24.8261  -7.5850  -7.1002  -7.0820   8.3164   9.8721  10.5729  13.6470
    13.6495  14.9215  18.9614  21.1322  21.3255  22.1855  24.8478  25.8534
    27.2669  28.0959  30.2367  31.4672  31.9980  32.6257  33.2409  35.5697
    37.2521  38.0234

          k = 0.1111 0.1111 0.3333 (   988 PWs)   bands (ev):

   -24.7728  -8.0516  -7.0482  -7.0311   8.9715  10.1343  11.0363  12.6607
    13.6912  15.1011  18.1471  20.2356  21.7201  22.9845  25.2590  26.1915
    27.7445  28.0746  29.7508  31.4086  31.6139  33.6205  33.9586  36.7037
    36.8857  38.0548

          k = 0.1111 0.1111 0.4444 (   984 PWs)   bands (ev):

   -24.7375  -8.3368  -7.0138  -6.9975   9.6216  10.3449  10.5477  12.1000
    14.3093  15.2320  18.7761  19.5445  21.8973  23.3760  23.5150  24.6155
    28.7719  29.3561  30.2554  32.0325  32.4335  34.1965  34.6454  36.2740
    36.3924  37.7820

          k = 0.1111 0.2222 0.2222 (   986 PWs)   bands (ev):

   -24.7805  -7.5545  -7.5099  -7.0469   8.8251  10.3259  11.1280  12.7501
    13.7567  13.9462  19.7603  20.0052  22.1253  23.2809  24.5154  25.8199
    26.4452  29.3877  29.6301  31.4069  32.3172  32.9754  34.5789  35.2638
    36.2946  37.6452

          k = 0.1111 0.2222 0.3333 (   989 PWs)   bands (ev):

   -24.7276  -7.9931  -7.4710  -6.9966   9.2478  10.3442  11.5454  12.3828
    13.9373  14.0967  18.8111  20.5434  21.5728  23.3865  25.0761  26.2659
    27.0449  28.3289  29.0485  31.2388  32.6872  34.0380  35.1977  36.8378
    37.3955  38.3818

          k = 0.1111 0.2222 0.4444 (   989 PWs)   bands (ev):

   -24.6926  -8.2741  -7.4314  -6.9633   9.4547  10.2814  11.5403  11.9065
    14.2378  15.1287  18.8697  20.9176  21.0700  22.4803  23.7940  25.4957
    27.5052  30.1751  30.9273  31.4602  32.9914  33.5583  34.2751  36.4189
    37.2799  37.6188

          k = 0.1111 0.3333 0.3333 (   984 PWs)   bands (ev):

   -24.6754  -7.9394  -7.9081  -6.9475   8.9757  10.3574  12.4425  12.4566
    13.9755  14.3622  18.9114  19.8120  21.6167  23.5215  25.4034  26.9613
    27.2851  27.5412  28.9196  29.2462  35.0203  35.9558  35.9984  36.5107
    37.3988  37.5731

          k = 0.1111 0.3333 0.4444 (   995 PWs)   bands (ev):

   -24.6408  -8.2011  -7.8780  -6.9150   8.6275  10.5946  12.0948  12.5949
    14.2956  15.6745  18.6485  20.1132  21.2259  22.6904  23.9631  26.7754
    27.0143  28.7218  29.7511  31.7785  32.8015  34.8043  36.2901  37.4379
    37.5954  38.4413

          k = 0.1111 0.4444 0.4444 (  1001 PWs)   bands (ev):

   -24.6064  -8.1546  -8.1499  -6.8830   8.1393  10.8820  12.2814  12.2898
    15.8732  16.0447  18.2679  19.5113  21.4684  22.8870  23.8183  24.1606
    27.9572  29.7183  31.4517  31.6390  32.3270  35.4833  35.4938  35.7375
    37.7560  38.9361

          k = 0.2222 0.2222 0.2222 (   988 PWs)   bands (ev):

   -24.7352  -7.5217  -7.4604  -7.4604   9.2287  11.1857  11.1857  12.7933
    12.7933  13.3174  20.4177  21.5710  21.5710  24.1373  24.1373  24.2620
    26.1545  29.9724  29.9724  31.4914  33.6908  33.9737  33.9737  35.6086
    35.6086  35.9711

          k = 0.2222 0.2222 0.3333 (   990 PWs)   bands (ev):

   -24.6828  -7.9360  -7.4394  -7.4032   9.4036  11.0666  11.3616  12.1092
    13.2408  14.3306  19.6874  20.9731  22.3256  23.3530  24.0694  26.3920
    27.2907  27.4070  30.1329  31.3057  32.6442  33.9540  35.6520  36.5275
    37.4524  37.5136

          k = 0.2222 0.2222 0.4444 (   992 PWs)   bands (ev):

   -24.6481  -8.2131  -7.4003  -7.3652   9.3997  10.7922  11.2224  11.9845
    13.4810  16.2307  19.2868  20.1524  21.9900  23.2129  24.0739  24.6337
    29.1536  29.7380  29.9910  31.2033  32.4637  34.0181  34.5632  35.3870
    35.8004  39.6756

          k = 0.2222 0.3333 0.3333 (   989 PWs)   bands (ev):

   -24.6310  -7.8836  -7.8536  -7.3638   9.1782  10.7745  11.2718  12.4386
    14.1019  14.9251  18.9647  20.8563  22.7135  23.4152  25.6518  25.7944
    27.4419  28.2095  28.2691  30.6056  33.4874  34.3374  35.6653  36.2322
    37.7010  37.9808

          k = 0.2222 0.3333 0.4444 (   986 PWs)   bands (ev):

   -24.5967  -8.1422  -7.8241  -7.3263   8.8769  10.6370  11.1230  12.4991
    14.5955  16.9006  18.3717  19.9134  22.6881  23.3144  24.4711  25.9071
    28.1630  28.9040  30.2861  30.7054  32.9281  33.5169  33.7711  36.0688
    37.2129  38.5573

          k = 0.2222 0.4444 0.4444 (   996 PWs)   bands (ev):

   -24.5626  -8.0970  -8.0926  -7.2897   8.4397  10.7757  10.8640  12.5381
    16.7442  17.3837  17.6613  19.3135  22.4881  23.6504  23.9998  25.1581
    29.6967  29.9437  30.4565  31.0713  31.7901  33.5867  34.1404  34.1905
    36.0692  37.4893

          k = 0.3333 0.3333 0.3333 (   997 PWs)   bands (ev):

   -24.5797  -7.8305  -7.7903  -7.7903   9.2520  10.3184  10.3184  14.2546
    14.2546  15.6284  17.6557  22.7315  22.7315  24.1855  25.4613  25.4613
    27.8146  27.8146  28.3209  31.4988  32.4748  33.9508  33.9508  36.3696
    36.9329  36.9329

          k = 0.3333 0.3333 0.4444 (   996 PWs)   bands (ev):

   -24.5457  -8.0737  -7.7733  -7.7483   9.0716   9.8044  10.2933  14.3600
    15.1158  16.8416  17.7276  20.7590  23.9701  24.4497  24.7834  24.9568
    28.1998  29.6027  29.9041  31.0510  31.9919  32.3447  33.5295  35.3942
    35.5671  38.2720

          k = 0.3333 0.4444 0.4444 (   993 PWs)   bands (ev):

   -24.5120  -8.0301  -8.0260  -7.7190   8.8481   9.7634   9.8223  14.8116
    15.9995  17.1024  18.4333  20.3841  22.7008  24.7748  24.9462  25.7105
    29.6603  30.0270  30.3978  30.4955  31.3547  32.7808  32.9618  32.9979
    36.5564  36.7370

          k = 0.4444 0.4444 0.4444 (   992 PWs)   bands (ev):

   -24.4785  -7.9873  -7.9816  -7.9816   9.1262   9.2772   9.2772  15.0861
    17.2540  17.2540  19.1088  20.9352  20.9352  25.9201  25.9748  25.9748
    28.7005  30.2143  30.2143  30.9059  31.4739  31.9458  31.9458  33.9451
    37.0106  37.0106

     the Fermi energy is    10.1564 ev

!    total energy              =    -471.70058699 Ry
     total all-electron energy =    -17721.225316 Ry
     estimated scf accuracy    <       0.00001266 Ry
     smearing contrib. (-TS)   =       0.00017258 Ry
     internal energy E=F+TS    =    -471.70075957 Ry

     The total energy is F=E-TS. E is the sum of the following terms:
     one-electron contribution =      -8.20933970 Ry
     hartree contribution      =       9.18475663 Ry
     xc contribution           =     -73.13911113 Ry
     ewald contribution        =     -53.76145995 Ry
     one-center paw contrib.   =    -345.77560543 Ry

     convergence has been achieved in   3 iterations

     Writing all to output data dir ./work/POSCAR.save/

     init_run     :      0.21s CPU      0.23s WALL (       1 calls)
     electrons    :      1.30s CPU      1.67s WALL (       1 calls)

     Called by init_run:
     wfcinit      :      0.07s CPU      0.07s WALL (       1 calls)
     potinit      :      0.06s CPU      0.08s WALL (       1 calls)
     hinit0       :      0.08s CPU      0.08s WALL (       1 calls)

     Called by electrons:
     c_bands      :      1.06s CPU      1.39s WALL (       4 calls)
     sum_band     :      0.12s CPU      0.12s WALL (       4 calls)
     v_of_rho     :      0.00s CPU      0.00s WALL (       4 calls)
     newd         :      0.01s CPU      0.01s WALL (       4 calls)
     PAW_pot      :      0.12s CPU      0.16s WALL (       4 calls)
     mix_rho      :      0.00s CPU      0.00s WALL (       4 calls)

     Called by c_bands:
     init_us_2    :      0.01s CPU      0.01s WALL (     315 calls)
     init_us_2:cp :      0.01s CPU      0.01s WALL (     315 calls)
     cegterg      :      1.03s CPU      1.07s WALL (     140 calls)

     Called by *egterg:
     cdiaghg      :      0.34s CPU      0.36s WALL (     638 calls)
     h_psi        :      0.58s CPU      0.60s WALL (     708 calls)
     s_psi        :      0.01s CPU      0.01s WALL (     708 calls)
     g_psi        :      0.00s CPU      0.00s WALL (     533 calls)

     Called by h_psi:
     h_psi:calbec :      0.03s CPU      0.03s WALL (     708 calls)
     vloc_psi     :      0.54s CPU      0.56s WALL (     708 calls)
     add_vuspsi   :      0.01s CPU      0.01s WALL (     708 calls)

     General routines
     calbec       :      0.04s CPU      0.04s WALL (     848 calls)
     fft          :      0.06s CPU      0.06s WALL (      51 calls)
     ffts         :      0.03s CPU      0.03s WALL (       8 calls)
     fftw         :      0.58s CPU      0.60s WALL (   25396 calls)
     interpolate  :      0.03s CPU      0.03s WALL (       4 calls)

     Parallel routines

     PWSCF        :      1.67s CPU      3.07s WALL


   This run was terminated on:  22:41:10  15May2024            

=------------------------------------------------------------------------------=
   JOB DONE.
=------------------------------------------------------------------------------=
