
     Program PWSCF v.7.1 starts on 15May2024 at 22:39:28 

     This program is part of the open-source Quantum ESPRESSO suite
     for quantum simulation of materials; please cite
         "P. Giannozzi et al., J. Phys.:Condens. Matter 21 395502 (2009);
         "P. Giannozzi et al., J. Phys.:Condens. Matter 29 465901 (2017);
         "P. Giannozzi et al., J. Chem. Phys. 152 154105 (2020);
          URL http://www.quantum-espresso.org", 
     in publications or presentations arising from this work. More details at
     http://www.quantum-espresso.org/quote

     Parallel version (MPI & OpenMP), running on      10 processor cores
     Number of MPI processes:                10
     Threads/MPI process:                     1

     MPI processes distributed on     1 nodes
     14557 MiB available memory on the printing compute node when the environment starts

     Waiting for input...
     Reading input from standard input

     Current dimensions of program PWSCF are:
     Max number of different atomic species (ntypx) = 10
     Max number of k-points (npk) =  40000
     Max angular momentum in pseudopotentials (lmaxx) =  4

     Atomic positions and unit cell read from directory:
     ./work/POSCAR.save/

     file Ce.pbe-spdn-kjpaw_psl.1.0.0.UPF: wavefunction(s)  5D renormalized
     Message from routine setup:
     using ibrav=0 with symmetry is DISCOURAGED, use correct ibrav instead

     R & G space division:  proc/nbgrp/npool/nimage =      10
     Subspace diagonalization in iterative solution of the eigenvalue problem:
     a serial algorithm will be used


     Parallelization info
     --------------------
     sticks:   dense  smooth     PW     G-vecs:    dense   smooth      PW
     Min          54      43     14                  931      697     134
     Max          55      44     15                  932      700     137
     Sum         545     437    145                 9315     6979    1357

     Using Slab Decomposition



     bravais-lattice index     =            0
     lattice parameter (alat)  =       6.1301  a.u.
     unit-cell volume          =     230.3621 (a.u.)^3
     number of atoms/cell      =            1
     number of atomic types    =            1
     number of electrons       =        11.00
     number of Kohn-Sham states=           26
     kinetic-energy cutoff     =      37.0000  Ry
     charge density cutoff     =     179.0000  Ry
     Exchange-correlation= SLA  PW   PBX  PBC
                           (   1   4   3   4   0   0   0)

     celldm(1)=   6.130139  celldm(2)=   0.000000  celldm(3)=   0.000000
     celldm(4)=   0.000000  celldm(5)=   0.000000  celldm(6)=   0.000000

     crystal axes: (cart. coord. in units of alat)
               a(1) = (   1.000000   0.000000   0.000000 )  
               a(2) = (   0.000000   1.000000   0.000000 )  
               a(3) = (   0.000000   0.000000   1.000000 )  

     reciprocal axes: (cart. coord. in units 2 pi/alat)
               b(1) = (  1.000000  0.000000  0.000000 )  
               b(2) = (  0.000000  1.000000  0.000000 )  
               b(3) = (  0.000000  0.000000  1.000000 )  


     PseudoPot. # 1 for Ce read from file:
     ./../../../../pseudo/psl100_PBE/Ce.pbe-spdn-kjpaw_psl.1.0.0.UPF
     MD5 check sum: 1a25380276e46fcecd5a173acdad072c
     Pseudo is Projector augmented-wave + core cor, Zval = 11.0
     Generated using 'atomic' code by A. Dal Corso  v.7.2
     Shape of augmentation charge: PSQ
     Using radial grid of 1255 points,  6 beta functions with: 
                l(1) =   0
                l(2) =   0
                l(3) =   1
                l(4) =   1
                l(5) =   2
                l(6) =   2
     Q(r) pseudized with 0 coefficients 


     atomic species   valence    mass     pseudopotential
        Ce            11.00   140.11600     Ce( 1.00)

     48 Sym. Ops., with inversion, found



   Cartesian axes

     site n.     atom                  positions (alat units)
         1           Ce  tau(   1) = (   0.0000000   0.0000000   0.0000000  )

     number of k points=    91  Methfessel-Paxton smearing, width (Ry)=  0.0200
                       cart. coord. in units 2pi/alat
        k(    1) = (   0.0000000   0.5000000   0.5000000), wk =   0.0219780
        k(    2) = (   0.0500000   0.5000000   0.5000000), wk =   0.0219780
        k(    3) = (   0.1000000   0.5000000   0.5000000), wk =   0.0219780
        k(    4) = (   0.1500000   0.5000000   0.5000000), wk =   0.0219780
        k(    5) = (   0.2000000   0.5000000   0.5000000), wk =   0.0219780
        k(    6) = (   0.2500000   0.5000000   0.5000000), wk =   0.0219780
        k(    7) = (   0.3000000   0.5000000   0.5000000), wk =   0.0219780
        k(    8) = (   0.3500000   0.5000000   0.5000000), wk =   0.0219780
        k(    9) = (   0.4000000   0.5000000   0.5000000), wk =   0.0219780
        k(   10) = (   0.4500000   0.5000000   0.5000000), wk =   0.0219780
        k(   11) = (   0.5000000   0.5000000   0.5000000), wk =   0.0219780
        k(   12) = (   0.4750000   0.4750000   0.4750000), wk =   0.0219780
        k(   13) = (   0.4500000   0.4500000   0.4500000), wk =   0.0219780
        k(   14) = (   0.4250000   0.4250000   0.4250000), wk =   0.0219780
        k(   15) = (   0.4000000   0.4000000   0.4000000), wk =   0.0219780
        k(   16) = (   0.3750000   0.3750000   0.3750000), wk =   0.0219780
        k(   17) = (   0.3500000   0.3500000   0.3500000), wk =   0.0219780
        k(   18) = (   0.3250000   0.3250000   0.3250000), wk =   0.0219780
        k(   19) = (   0.3000000   0.3000000   0.3000000), wk =   0.0219780
        k(   20) = (   0.2750000   0.2750000   0.2750000), wk =   0.0219780
        k(   21) = (   0.2500000   0.2500000   0.2500000), wk =   0.0219780
        k(   22) = (   0.2250000   0.2250000   0.2250000), wk =   0.0219780
        k(   23) = (   0.2000000   0.2000000   0.2000000), wk =   0.0219780
        k(   24) = (   0.1750000   0.1750000   0.1750000), wk =   0.0219780
        k(   25) = (   0.1500000   0.1500000   0.1500000), wk =   0.0219780
        k(   26) = (   0.1250000   0.1250000   0.1250000), wk =   0.0219780
        k(   27) = (   0.1000000   0.1000000   0.1000000), wk =   0.0219780
        k(   28) = (   0.0750000   0.0750000   0.0750000), wk =   0.0219780
        k(   29) = (   0.0500000   0.0500000   0.0500000), wk =   0.0219780
        k(   30) = (   0.0250000   0.0250000   0.0250000), wk =   0.0219780
        k(   31) = (   0.0000000   0.0000000   0.0000000), wk =   0.0219780
        k(   32) = (   0.0500000   0.0000000   0.0000000), wk =   0.0219780
        k(   33) = (   0.1000000   0.0000000   0.0000000), wk =   0.0219780
        k(   34) = (   0.1500000   0.0000000   0.0000000), wk =   0.0219780
        k(   35) = (   0.2000000   0.0000000   0.0000000), wk =   0.0219780
        k(   36) = (   0.2500000   0.0000000   0.0000000), wk =   0.0219780
        k(   37) = (   0.3000000   0.0000000   0.0000000), wk =   0.0219780
        k(   38) = (   0.3500000   0.0000000   0.0000000), wk =   0.0219780
        k(   39) = (   0.4000000   0.0000000   0.0000000), wk =   0.0219780
        k(   40) = (   0.4500000   0.0000000   0.0000000), wk =   0.0219780
        k(   41) = (   0.5000000   0.0000000   0.0000000), wk =   0.0219780
        k(   42) = (   0.5000000   0.0500000   0.0000000), wk =   0.0219780
        k(   43) = (   0.5000000   0.1000000   0.0000000), wk =   0.0219780
        k(   44) = (   0.5000000   0.1500000   0.0000000), wk =   0.0219780
        k(   45) = (   0.5000000   0.2000000   0.0000000), wk =   0.0219780
        k(   46) = (   0.5000000   0.2500000   0.0000000), wk =   0.0219780
        k(   47) = (   0.5000000   0.3000000   0.0000000), wk =   0.0219780
        k(   48) = (   0.5000000   0.3500000   0.0000000), wk =   0.0219780
        k(   49) = (   0.5000000   0.4000000   0.0000000), wk =   0.0219780
        k(   50) = (   0.5000000   0.4500000   0.0000000), wk =   0.0219780
        k(   51) = (   0.5000000   0.5000000   0.0000000), wk =   0.0219780
        k(   52) = (   0.4750000   0.4750000   0.0000000), wk =   0.0219780
        k(   53) = (   0.4500000   0.4500000   0.0000000), wk =   0.0219780
        k(   54) = (   0.4250000   0.4250000   0.0000000), wk =   0.0219780
        k(   55) = (   0.4000000   0.4000000   0.0000000), wk =   0.0219780
        k(   56) = (   0.3750000   0.3750000   0.0000000), wk =   0.0219780
        k(   57) = (   0.3500000   0.3500000   0.0000000), wk =   0.0219780
        k(   58) = (   0.3250000   0.3250000   0.0000000), wk =   0.0219780
        k(   59) = (   0.3000000   0.3000000   0.0000000), wk =   0.0219780
        k(   60) = (   0.2750000   0.2750000   0.0000000), wk =   0.0219780
        k(   61) = (   0.2500000   0.2500000   0.0000000), wk =   0.0219780
        k(   62) = (   0.2250000   0.2250000   0.0000000), wk =   0.0219780
        k(   63) = (   0.2000000   0.2000000   0.0000000), wk =   0.0219780
        k(   64) = (   0.1750000   0.1750000   0.0000000), wk =   0.0219780
        k(   65) = (   0.1500000   0.1500000   0.0000000), wk =   0.0219780
        k(   66) = (   0.1250000   0.1250000   0.0000000), wk =   0.0219780
        k(   67) = (   0.1000000   0.1000000   0.0000000), wk =   0.0219780
        k(   68) = (   0.0750000   0.0750000   0.0000000), wk =   0.0219780
        k(   69) = (   0.0500000   0.0500000   0.0000000), wk =   0.0219780
        k(   70) = (   0.0250000   0.0250000   0.0000000), wk =   0.0219780
        k(   71) = (   0.0000000   0.0000000   0.0000000), wk =   0.0219780
        k(   72) = (   0.0250000   0.0250000   0.0250000), wk =   0.0219780
        k(   73) = (   0.0500000   0.0500000   0.0500000), wk =   0.0219780
        k(   74) = (   0.0750000   0.0750000   0.0750000), wk =   0.0219780
        k(   75) = (   0.1000000   0.1000000   0.1000000), wk =   0.0219780
        k(   76) = (   0.1250000   0.1250000   0.1250000), wk =   0.0219780
        k(   77) = (   0.1500000   0.1500000   0.1500000), wk =   0.0219780
        k(   78) = (   0.1750000   0.1750000   0.1750000), wk =   0.0219780
        k(   79) = (   0.2000000   0.2000000   0.2000000), wk =   0.0219780
        k(   80) = (   0.2250000   0.2250000   0.2250000), wk =   0.0219780
        k(   81) = (   0.2500000   0.2500000   0.2500000), wk =   0.0219780
        k(   82) = (   0.2750000   0.2750000   0.2750000), wk =   0.0219780
        k(   83) = (   0.3000000   0.3000000   0.3000000), wk =   0.0219780
        k(   84) = (   0.3250000   0.3250000   0.3250000), wk =   0.0219780
        k(   85) = (   0.3500000   0.3500000   0.3500000), wk =   0.0219780
        k(   86) = (   0.3750000   0.3750000   0.3750000), wk =   0.0219780
        k(   87) = (   0.4000000   0.4000000   0.4000000), wk =   0.0219780
        k(   88) = (   0.4250000   0.4250000   0.4250000), wk =   0.0219780
        k(   89) = (   0.4500000   0.4500000   0.4500000), wk =   0.0219780
        k(   90) = (   0.4750000   0.4750000   0.4750000), wk =   0.0219780
        k(   91) = (   0.5000000   0.5000000   0.5000000), wk =   0.0219780

     Dense  grid:     9315 G-vectors     FFT dimensions: (  27,  27,  27)

     Smooth grid:     6979 G-vectors     FFT dimensions: (  24,  24,  24)

     Estimated max dynamical RAM per process >       4.07 MB

     Estimated total dynamical RAM >      40.70 MB

     The potential is recalculated from file :
     ./work/POSCAR.save/charge-density

     Starting wfcs are   13 randomized atomic wfcs +   13 random wfcs
     Checking if some PAW data can be deallocated... 

     Band Structure Calculation
     Davidson diagonalization with overlap

     ethr =  6.64E-07,  avg # of iterations = 17.5

     total cpu time spent up to now is        3.4 secs

     End of band structure calculation

          k = 0.0000 0.5000 0.5000 (   872 PWs)   bands (ev):

   -22.8628  -6.7731  -6.7731  -4.7206   9.0166  12.1198  15.3666  15.3666
    17.2872  17.2872  20.8355  23.4801  24.4154  24.5783  24.5783  26.4014
    31.0373  33.2179  33.2179  37.6509  37.7605  37.8115  38.7760  38.7760
    43.6469  43.6469

          k = 0.0500 0.5000 0.5000 (   880 PWs)   bands (ev):

   -22.8574  -6.7665  -6.7665  -4.7708   9.0416  12.2569  14.9479  14.9479
    17.7468  17.7468  20.8432  22.7026  24.6343  24.6343  25.1963  26.4037
    31.1210  33.2358  33.2358  37.5279  37.6313  37.8403  38.4995  38.4995
    43.6331  43.9928

          k = 0.1000 0.5000 0.5000 (   872 PWs)   bands (ev):

   -22.8417  -6.7473  -6.7473  -4.9141   9.1159  12.6606  14.1756  14.1756
    18.6339  18.6339  20.8659  21.6267  24.8082  24.8082  26.2647  26.4066
    31.3888  33.2887  33.2887  37.1857  37.2856  37.8399  37.8399  37.9262
    43.0649  43.0675

          k = 0.1500 0.5000 0.5000 (   876 PWs)   bands (ev):

   -22.8170  -6.7172  -6.7172  -5.1302   9.2369  13.3094  13.3810  13.3810
    19.5929  19.5929  20.5776  20.9016  25.1173  25.1173  26.3970  27.2446
    31.8858  33.3734  33.3734  36.6859  36.8114  37.0413  37.0413  38.0671
    40.9743  42.3767

          k = 0.2000 0.5000 0.5000 (   868 PWs)   bands (ev):

   -22.7855  -6.6789  -6.6789  -5.3915   9.3996  12.6430  12.6430  14.1737
    19.5922  20.5056  20.5056  20.9473  25.5877  25.5877  26.3495  28.0442
    32.6561  33.4847  33.4847  36.0951  36.2387  36.2387  36.2912  38.2587
    38.9668  41.6986

          k = 0.2500 0.5000 0.5000 (   880 PWs)   bands (ev):

   -22.7503  -6.6358  -6.6358  -5.6686   9.5959  11.9900  11.9900  15.2194
    18.6901  20.9989  21.2995  21.2995  26.2202  26.2398  26.2398  28.6375
    33.6134  33.6134  33.6835  35.4627  35.5017  35.5017  35.7841  37.1352
    38.4940  41.1114

          k = 0.3000 0.5000 0.5000 (   884 PWs)   bands (ev):

   -22.7147  -6.5921  -6.5921  -5.9340   9.8134  11.4378  11.4378  16.4113
    17.8900  21.0516  21.9334  21.9334  25.9424  27.0593  27.0593  29.0590
    33.7441  33.7441  34.7945  34.8650  34.8807  34.8807  35.3294  35.6057
    38.7612  40.6990

          k = 0.3500 0.5000 0.5000 (   884 PWs)   bands (ev):

   -22.6822  -6.5521  -6.5521  -6.1646  10.0331  10.9974  10.9974  17.2142
    17.7109  21.1000  22.4025  22.4025  25.4352  27.9725  27.9725  29.3565
    33.8342  33.8342  33.9877  34.4447  34.4447  34.6156  34.9530  36.0145
    39.0403  40.6015

          k = 0.4000 0.5000 0.5000 (   892 PWs)   bands (ev):

   -22.6562  -6.5201  -6.5201  -6.3422  10.2284  10.6768  10.6768  16.6918
    19.0690  21.1391  22.7225  22.7225  24.6499  28.8423  28.8423  29.5594
    33.2304  33.7853  33.7853  34.0802  34.3135  34.3135  34.6723  36.8636
    39.2989  41.0491

          k = 0.4500 0.5000 0.5000 (   908 PWs)   bands (ev):

   -22.6393  -6.4993  -6.4993  -6.4540  10.3663  10.4820  10.4820  16.3570
    20.3862  21.1645  22.9092  22.9092  23.6565  29.4829  29.4829  29.6797
    32.7900  33.6860  33.6860  33.7642  34.3865  34.3865  34.4992  37.2662
    39.4900  39.9790

          k = 0.5000 0.5000 0.5000 (   912 PWs)   bands (ev):

   -22.6335  -6.4921  -6.4921  -6.4921  10.4166  10.4166  10.4166  16.2410
    21.1734  21.1734  22.9708  22.9708  22.9708  29.7198  29.7198  29.7198
    32.6536  33.6547  33.6547  33.6547  34.4408  34.4408  34.4408  37.3654
    39.5618  39.5618

          k = 0.4750 0.4750 0.4750 (   906 PWs)   bands (ev):

   -22.6379  -6.4871  -6.4857  -6.4857  10.4136  10.4481  10.4481  16.3285
    20.8228  20.8228  22.8005  23.3210  23.3210  29.5766  29.6035  29.6035
    32.7516  33.5642  33.5642  33.9053  34.2762  34.5242  34.5242  37.3019
    39.7468  39.7468

          k = 0.4500 0.4500 0.4500 (   891 PWs)   bands (ev):

   -22.6510  -6.4722  -6.4663  -6.4663  10.4082  10.5423  10.5423  16.5859
    20.1243  20.1243  22.3240  24.0133  24.0133  29.2201  29.3054  29.3054
    33.0274  33.1990  33.1990  33.8471  34.5554  34.8759  34.8759  37.1501
    40.2300  40.2300

          k = 0.4250 0.4250 0.4250 (   892 PWs)   bands (ev):

   -22.6724  -6.4473  -6.4343  -6.4343  10.4103  10.6981  10.6981  16.9999
    19.3443  19.3443  21.6211  24.7601  24.7601  28.7653  28.9305  28.9305
    32.6167  32.6167  33.2697  33.4377  35.3784  35.4496  35.4496  37.0441
    40.6790  40.6790

          k = 0.4000 0.4000 0.4000 (   889 PWs)   bands (ev):

   -22.7017  -6.4121  -6.3898  -6.3898  10.4316  10.9141  10.9141  17.5528
    18.5501  18.5501  20.7765  25.4393  25.4393  28.2803  28.5937  28.5937
    31.9433  31.9433  32.6296  33.9383  35.9150  36.1172  36.1172  37.3913
    40.4063  40.4063

          k = 0.3750 0.3750 0.3750 (   895 PWs)   bands (ev):

   -22.7381  -6.3664  -6.3333  -6.3333  10.4814  11.1878  11.1878  17.7642
    17.7642  18.2245  19.8598  25.9038  25.9038  27.7988  28.4358  28.4358
    31.2727  31.2727  31.9742  34.4924  35.9170  36.7567  36.7567  38.4123
    40.1358  40.1358

          k = 0.3500 0.3500 0.3500 (   886 PWs)   bands (ev):

   -22.7807  -6.3099  -6.2652  -6.2652  10.5642  11.5153  11.5153  16.9985
    16.9985  18.8890  19.0289  26.0034  26.0034  27.3418  28.5356  28.5356
    30.7293  30.7293  31.3293  35.0502  35.8050  37.2212  37.2212  39.6848
    40.1786  40.1786

          k = 0.3250 0.3250 0.3250 (   880 PWs)   bands (ev):

   -22.8283  -6.2425  -6.1863  -6.1863  10.6774  11.8900  11.8900  16.2635
    16.2635  18.0003  19.8480  25.7995  25.7995  26.9288  28.5885  28.5885
    30.5889  30.5889  30.7093  35.3733  35.9457  37.4204  37.4204  40.5879
    40.5879  41.0060

          k = 0.3000 0.3000 0.3000 (   880 PWs)   bands (ev):

   -22.8799  -6.1645  -6.0977  -6.0977  10.8088  12.2991  12.2991  15.5737
    15.5737  17.1435  20.7390  25.4600  25.4600  26.5878  28.2638  28.2638
    30.1227  31.0347  31.0347  35.3246  36.4814  37.4369  37.4369  41.1396
    41.1396  42.0670

          k = 0.2750 0.2750 0.2750 (   880 PWs)   bands (ev):

   -22.9342  -6.0760  -6.0008  -6.0008  10.9326  12.7106  12.7106  14.9616
    14.9616  16.3899  21.6210  25.0796  25.0796  26.3680  27.7472  27.7472
    29.5745  31.7982  31.7982  35.2183  37.0451  37.3937  37.3937  41.2209
    41.2209  41.5792

          k = 0.2500 0.2500 0.2500 (   886 PWs)   bands (ev):

   -22.9898  -5.9779  -5.8973  -5.8973  11.0047  13.0179  13.0179  14.5332
    14.5332  15.7960  22.3965  24.6975  24.6975  26.3620  27.2075  27.2075
    29.0681  32.6727  32.6727  35.0848  37.3504  37.3504  37.4294  40.3861
    40.3861  40.5009

          k = 0.2250 0.2250 0.2250 (   868 PWs)   bands (ev):

   -23.0452  -5.8717  -5.7892  -5.7892  10.9681  12.9712  12.9712  14.5361
    14.5361  15.4263  22.9272  24.3308  24.3308  26.7029  26.7062  26.7062
    28.6062  33.5568  33.5568  34.8425  37.3048  37.3048  37.3070  39.2549
    39.2549  40.0542

          k = 0.2000 0.2000 0.2000 (   874 PWs)   bands (ev):

   -23.0993  -5.7594  -5.6791  -5.6791  10.7838  12.6016  12.6016  14.9347
    14.9347  15.3246  23.1501  23.9871  23.9871  26.2715  26.2715  27.4460
    28.1900  34.2996  34.2996  34.3023  36.8427  37.1669  37.1669  38.3803
    38.3803  40.3508

          k = 0.1750 0.1750 0.1750 (   868 PWs)   bands (ev):

   -23.1506  -5.6439  -5.5700  -5.5700  10.4666  12.1539  12.1539  15.4770
    15.4778  15.4778  23.1551  23.6705  23.6705  25.9222  25.9222  27.8210
    28.4907  33.3633  34.4563  34.4563  36.6019  37.0840  37.0840  38.1417
    38.1417  40.9438

          k = 0.1500 0.1500 0.1500 (   871 PWs)   bands (ev):

   -23.1978  -5.5288  -5.4650  -5.4650  10.0742  11.7206  11.7206  15.8231
    16.0620  16.0620  23.0571  23.3832  23.3832  25.6749  25.6749  27.4998
    29.7002  32.2119  33.7294  33.7294  36.6273  37.5908  37.5908  38.3279
    38.3279  41.6095

          k = 0.1250 0.1250 0.1250 (   865 PWs)   bands (ev):

   -23.2399  -5.4186  -5.3677  -5.3677   9.6669  11.3314  11.3314  16.2947
    16.6421  16.6421  22.9237  23.1279  23.1279  25.5454  25.5454  27.2272
    30.7658  31.2452  32.6398  32.6398  36.8237  38.2009  38.2009  38.9174
    38.9174  42.2490

          k = 0.1000 0.1000 0.1000 (   871 PWs)   bands (ev):

   -23.2759  -5.3182  -5.2817  -5.2817   9.2891  10.9998  10.9998  16.8312
    17.1836  17.1836  22.7881  22.9077  22.9077  25.5490  25.5490  27.0036
    29.8319  31.4924  31.4924  32.3334  37.1659  38.6367  38.6367  39.8849
    39.8849  42.7350

          k = 0.0750 0.0750 0.0750 (   883 PWs)   bands (ev):

   -23.3048  -5.2329  -5.2104  -5.2104   8.9706  10.7342  10.7342  17.3740
    17.6524  17.6524  22.6667  22.7275  22.7275  25.6971  25.6971  26.8293
    28.8394  30.3865  30.3865  33.4929  37.6909  39.0690  39.0690  40.9340
    40.9340  42.8202

          k = 0.0500 0.0500 0.0500 (   880 PWs)   bands (ev):

   -23.3259  -5.1676  -5.1569  -5.1569   8.7307  10.5404  10.5404  17.8562
    18.0155  18.0155  22.5690  22.5926  22.5926  25.9875  25.9875  26.7047
    28.0386  29.3796  29.3796  34.3965  38.4705  39.5406  39.5406  41.6793
    41.6793  42.4625

          k = 0.0250 0.0250 0.0250 (   883 PWs)   bands (ev):

   -23.3388  -5.1265  -5.1238  -5.1238   8.5821  10.4224  10.4224  18.1986
    18.2454  18.2454  22.5037  22.5087  22.5087  26.3697  26.3697  26.6298
    27.5100  28.5552  28.5552  34.9362  39.4989  40.0324  40.0324  41.4478
    41.4478  41.8153

          k = 0.0000 0.0000 0.0000 (   895 PWs)   bands (ev):

   -23.3432  -5.1126  -5.1126  -5.1126   8.5317  10.3828  10.3828  18.3240
    18.3240  18.3240  22.4802  22.4802  22.4802  26.6048  26.6048  26.6048
    27.3238  28.1706  28.1706  35.1095  40.3474  40.3474  40.3474  41.1291
    41.1291  41.1291

          k = 0.0500 0.0000 0.0000 (   879 PWs)   bands (ev):

   -23.3374  -5.1703  -5.1078  -5.1078   8.5974  10.4006  10.4713  18.1384
    18.1384  18.3343  22.2162  22.6643  22.6643  25.9405  26.7139  26.7139
    27.5310  28.3341  28.9134  34.8946  39.4635  39.4635  40.6464  40.6571
    42.0248  42.0248

          k = 0.1000 0.0000 0.0000 (   888 PWs)   bands (ev):

   -23.3207  -5.3342  -5.0938  -5.0938   8.7760  10.4526  10.7408  17.6772
    17.6772  18.3642  21.5887  23.1083  23.1083  24.9042  27.0507  27.0507
    27.8092  29.0014  30.1850  34.3633  38.3388  38.3388  39.5534  40.9687
    41.4297  43.1102

          k = 0.1500 0.0000 0.0000 (   872 PWs)   bands (ev):

   -23.2944  -5.5795  -5.0718  -5.0718   9.0263  10.5360  11.1908  17.0987
    17.0987  18.4116  20.8483  23.6297  23.6297  23.8924  27.6313  27.6313
    27.9758  30.0985  31.5904  33.7004  37.2821  37.2821  37.9366  39.4658
    42.5144  43.8679

          k = 0.2000 0.0000 0.0000 (   864 PWs)   bands (ev):

   -23.2610  -5.8735  -5.0439  -5.0439   9.3128  10.6456  11.7879  16.5062
    16.5062  18.4727  20.1580  22.9604  24.1180  24.1180  28.1033  28.4439
    28.4439  31.3645  33.0223  33.0766  36.0164  36.3353  36.3353  38.4095
    43.7849  44.2354

          k = 0.2500 0.0000 0.0000 (   868 PWs)   bands (ev):

   -23.2235  -6.1824  -5.0128  -5.0128   9.6184  10.7734  12.4477  15.9552
    15.9552  18.5420  19.6415  22.1286  24.5411  24.5411  28.1683  29.4236
    29.4236  32.3900  32.5882  34.1593  34.6249  35.5460  35.5460  37.6737
    44.3941  44.3941

          k = 0.3000 0.0000 0.0000 (   868 PWs)   bands (ev):

   -23.1856  -6.4760  -4.9814  -4.9814   9.9353  10.9089  13.0349  15.4766
    15.4766  18.6133  19.4331  21.4133  24.9033  24.9033  28.0365  30.4395
    30.4395  31.8378  32.4010  33.6698  35.0094  35.0094  36.2216  37.4652
    44.3954  44.3954

          k = 0.3500 0.0000 0.0000 (   868 PWs)   bands (ev):

   -23.1510  -6.7294  -4.9528  -4.9528  10.2517  11.0388  13.4067  15.0891
    15.0891  18.6796  19.6641  20.8304  25.2091  25.2091  27.4314  31.2527
    31.2527  31.3879  31.3909  33.8894  34.9301  34.9301  37.8489  38.1437
    43.9190  43.9190

          k = 0.4000 0.0000 0.0000 (   864 PWs)   bands (ev):

   -23.1232  -6.9237  -4.9300  -4.9300  10.5416  11.1479  13.5234  14.8047
    14.8047  18.7335  20.3607  20.3969  25.4508  25.4508  26.2619  31.0313
    31.0556  31.6191  31.6191  33.6458  35.5160  35.5160  39.4799  39.5251
    42.5224  42.5224

          k = 0.4500 0.0000 0.0000 (   868 PWs)   bands (ev):

   -23.1052  -7.0456  -4.9152  -4.9152  10.7585  11.2210  13.4922  14.6311
    14.6311  18.7687  20.1288  21.3663  24.8907  25.6098  25.6098  30.8517
    31.0249  31.6624  31.6624  33.3357  36.5370  36.5370  40.9986  40.9986
    41.0646  41.2228

          k = 0.5000 0.0000 0.0000 (   852 PWs)   bands (ev):

   -23.0989  -7.0870  -4.9100  -4.9100  10.8414  11.2468  13.4598  14.5729
    14.5729  18.7811  20.0379  22.0781  24.0497  25.6658  25.6658  30.7830
    31.0625  31.6465  31.6465  33.2010  37.1920  37.1920  40.1915  40.1915
    42.3720  42.6893

          k = 0.5000 0.0500 0.0000 (   868 PWs)   bands (ev):

   -23.0934  -7.0798  -4.9636  -4.9056  10.9171  11.3262  13.1148  14.5893
    14.8417  18.6361  20.2050  22.0480  24.0701  25.4804  25.9018  30.0317
    30.9989  31.3723  32.4370  33.9056  37.0272  37.2035  39.7531  40.2405
    41.6945  42.7672

          k = 0.5000 0.1000 0.0000 (   866 PWs)   bands (ev):

   -23.0772  -7.0585  -5.1160  -4.8924  11.0637  11.6343  12.4706  14.6378
    15.2762  18.2561  20.6810  21.9470  24.1301  25.0515  26.5556  29.0248
    29.9950  32.1840  33.5557  35.0476  36.5987  37.2377  38.9740  40.0965
    40.3915  42.8376

          k = 0.5000 0.1500 0.0000 (   868 PWs)   bands (ev):

   -23.0518  -7.0251  -5.3451  -4.8719  11.2033  11.7806  12.2190  14.7153
    15.6728  17.7497  21.3936  21.7466  24.2235  24.5976  27.5187  28.0641
    29.0555  33.2924  34.6806  35.9850  36.0364  37.2919  38.1855  38.4785
    40.6560  42.9338

          k = 0.5000 0.2000 0.0000 (   872 PWs)   bands (ev):

   -23.0195  -6.9824  -5.6211  -4.8458  11.1165  11.3504  13.0201  14.8168
    16.0201  17.2087  21.4313  22.2319  24.2618  24.3321  27.1813  28.2956
    28.6998  34.4063  35.5422  35.7455  36.0362  36.2585  37.3617  38.9826
    41.0510  43.0349

          k = 0.5000 0.2500 0.0000 (   872 PWs)   bands (ev):

   -22.9832  -6.9343  -5.9125  -4.8166  10.5137  11.5124  13.9690  14.9348
    16.3334  16.6926  21.0395  23.0512  24.0822  24.4026  26.3934  27.8648
    30.0402  33.7890  34.8905  35.4730  36.3727  36.6901  37.4413  40.2047
    41.5872  43.0339

          k = 0.5000 0.3000 0.0000 (   878 PWs)   bands (ev):

   -22.9465  -6.8854  -6.1907  -4.7873   9.9947  11.6829  14.9884  15.0593
    16.2373  16.6212  20.6642  23.7007  24.0296  24.3323  25.7157  27.9677
    31.5033  31.9448  34.2885  34.8303  37.4649  37.5232  37.8751  41.5412
    42.2385  42.4577

          k = 0.5000 0.3500 0.0000 (   882 PWs)   bands (ev):

   -22.9131  -6.8406  -6.4318  -4.7605   9.5754  11.8482  15.1781  15.8654
    15.9657  16.8796  20.4235  24.0682  24.0686  24.1488  25.1639  28.6371
    30.0912  33.0646  33.8335  34.2495  37.5995  38.0513  39.5003  41.0363
    42.6506  42.9092

          k = 0.5000 0.4000 0.0000 (   876 PWs)   bands (ev):

   -22.8862  -6.8046  -6.6170  -4.7392   9.2677  11.9893  15.2771  15.5910
    16.7356  17.0926  20.4338  23.7882  24.1871  24.3907  24.7541  28.3965
    29.6243  33.4966  33.7676  34.7033  37.6617  38.4573  39.4950  41.1611
    41.8211  43.2853

          k = 0.5000 0.4500 0.0000 (   876 PWs)   bands (ev):

   -22.8688  -6.7812  -6.7334  -4.7253   9.0798  12.0855  15.3433  15.4230
    17.1647  17.2361  20.6753  23.5630  24.4008  24.5010  24.5323  27.0255
    30.5859  33.2884  33.3945  36.3835  37.7032  38.2899  38.6966  40.1076
    42.7375  43.5659

          k = 0.5000 0.5000 0.0000 (   872 PWs)   bands (ev):

   -22.8628  -6.7731  -6.7731  -4.7206   9.0166  12.1198  15.3666  15.3666
    17.2872  17.2872  20.8355  23.4801  24.4154  24.5783  24.5783  26.4014
    31.0373  33.2179  33.2179  37.6509  37.7605  37.8115  38.7760  38.7760
    43.6469  43.6469

          k = 0.4750 0.4750 0.0000 (   876 PWs)   bands (ev):

   -22.8659  -6.7658  -6.7645  -4.7230   9.0482  12.1024  15.3705  15.3791
    17.2449  17.2456  20.7475  23.5198  24.3114  24.4583  24.7415  26.7123
    30.8165  33.0224  33.5300  37.0805  37.3192  38.0531  39.2203  39.3064
    43.2918  43.4125

          k = 0.4500 0.4500 0.0000 (   876 PWs)   bands (ev):

   -22.8749  -6.7441  -6.7389  -4.7301   9.1423  12.0511  15.3832  15.4166
    17.1152  17.1191  20.5394  23.5458  23.8787  24.5862  25.1799  27.3593
    30.3783  32.5310  34.2510  36.1546  36.5916  38.6812  39.9553  40.0930
    42.5567  42.8057

          k = 0.4250 0.4250 0.0000 (   868 PWs)   bands (ev):

   -22.8896  -6.7078  -6.6966  -4.7418   9.2964  11.9682  15.4060  15.4789
    16.8852  16.9127  20.3152  23.1173  23.9496  24.7964  25.7983  28.0654
    29.9833  31.8996  35.1618  35.1808  35.8285  39.5287  40.7241  40.7578
    41.7192  41.9880

          k = 0.4000 0.4000 0.0000 (   878 PWs)   bands (ev):

   -22.9097  -6.6573  -6.6382  -4.7578   9.5059  11.8582  15.4413  15.5656
    16.5509  16.6304  20.1486  22.6203  24.1878  25.0845  26.5209  28.6052
    29.8754  31.2310  34.2021  35.0623  36.1820  40.3401  41.0035  41.0707
    41.1398  41.4791

          k = 0.3750 0.3750 0.0000 (   868 PWs)   bands (ev):

   -22.9346  -6.5925  -6.5646  -4.7777   9.7627  11.7277  15.4921  15.6759
    16.1241  16.2803  20.0687  22.2047  24.4326  25.4439  27.2893  28.7387
    30.3203  30.5912  33.2351  34.3020  37.2734  39.8035  40.1238  41.1819
    41.6788  42.1811

          k = 0.3500 0.3500 0.0000 (   876 PWs)   bands (ev):

   -22.9637  -6.5140  -6.4770  -4.8011  10.0513  11.5881  15.5613  15.6296
    15.8091  15.8771  20.0735  21.8927  24.6241  25.8653  28.0146  28.7575
    30.0684  31.0555  32.2920  33.5513  38.3395  38.9171  39.2633  40.9959
    42.6807  42.7608

          k = 0.3250 0.3250 0.0000 (   882 PWs)   bands (ev):

   -22.9962  -6.4225  -6.3769  -4.8273  10.3392  11.4628  15.0942  15.4461
    15.6519  15.9639  20.1497  21.6868  24.7197  26.3332  28.4074  28.9101
    29.9479  31.3887  31.8428  32.8135  38.0253  38.1269  39.7538  40.7074
    42.7485  43.1057

          k = 0.3000 0.3000 0.0000 (   880 PWs)   bands (ev):

   -23.0313  -6.3188  -6.2658  -4.8557  10.5497  11.4089  14.5408  15.0261
    15.7663  16.1390  20.2829  21.5790  24.7127  26.8161  28.2005  29.2448
    30.4863  30.5557  32.0918  32.5897  37.1607  37.3310  40.3847  40.8079
    41.7606  43.1341

          k = 0.2750 0.2750 0.0000 (   872 PWs)   bands (ev):

   -23.0681  -6.2043  -6.1459  -4.8855  10.5793  11.4909  13.9869  14.6760
    15.9065  16.3325  20.4609  21.5556  24.6320  27.2300  27.7773  29.7321
    29.8753  31.2741  31.3893  33.1891  36.3584  36.6942  40.0611  40.2594
    42.3256  42.9136

          k = 0.2500 0.2500 0.0000 (   876 PWs)   bands (ev):

   -23.1058  -6.0810  -6.0196  -4.9162  10.4551  11.6143  13.4454  14.4806
    16.0738  16.5419  20.6737  21.6003  24.5195  27.3428  27.3520  29.5679
    30.3055  30.7094  32.0329  33.4632  35.6988  36.4076  39.0960  39.7542
    42.5743  43.3255

          k = 0.2250 0.2250 0.0000 (   876 PWs)   bands (ev):

   -23.1433  -5.9512  -5.8896  -4.9469  10.2609  11.6262  12.9266  14.5230
    16.2686  16.7643  20.9124  21.6951  24.4143  26.9468  26.9993  29.8134
    30.0566  30.8441  32.5076  33.3877  35.3944  36.3917  38.1339  39.4753
    42.2014  43.0016

          k = 0.2000 0.2000 0.0000 (   868 PWs)   bands (ev):

   -23.1797  -5.8178  -5.7591  -4.9768  10.0325  11.4931  12.4390  14.8101
    16.4903  16.9958  21.1680  21.8201  24.3493  26.3844  26.6080  29.4359
    30.3954  31.0824  32.4206  33.3904  35.7117  35.8144  38.0688  39.2333
    41.8364  42.6947

          k = 0.1750 0.1750 0.0000 (   867 PWs)   bands (ev):

   -23.2142  -5.6844  -5.6314  -5.0053   9.7834  11.2787  11.9896  15.2694
    16.7370  17.2314  21.4301  21.9539  24.3535  25.7012  26.3382  28.8536
    30.8066  31.1144  31.9197  33.8591  34.7119  36.4982  38.6973  39.0366
    41.4990  42.4206

          k = 0.1500 0.1500 0.0000 (   867 PWs)   bands (ev):

   -23.2460  -5.5550  -5.5100  -5.0316   9.5236  11.0498  11.5849  15.8230
    17.0053  17.4650  21.6865  22.0772  24.4512  25.0208  26.1482  28.3168
    30.2310  31.2731  31.8907  33.5171  34.6624  37.4831  38.8965  39.5062
    41.1989  42.1893

          k = 0.1250 0.1250 0.0000 (   867 PWs)   bands (ev):

   -23.2742  -5.4341  -5.3988  -5.0550   9.2659  10.8436  11.2308  16.4135
    17.2887  17.6890  21.9233  22.1791  24.3737  24.6566  26.0483  27.8343
    29.5663  30.5955  32.3487  32.6805  35.6075  38.5442  38.8293  40.3547
    40.9412  42.0134

          k = 0.1000 0.1000 0.0000 (   871 PWs)   bands (ev):

   -23.2982  -5.3265  -5.3014  -5.0750   9.0262  10.6742  10.9327  16.9949
    17.5770  17.8944  22.1266  22.2616  23.7806  24.9692  26.0458  27.4160
    28.9030  29.9323  31.2362  33.4420  36.6277  38.8602  39.6092  40.7284
    41.1612  41.9259

          k = 0.0750 0.0750 0.0000 (   879 PWs)   bands (ev):

   -23.3175  -5.2367  -5.2214  -5.0911   8.8208  10.5447  10.6954  17.5222
    17.8539  18.0709  22.2857  22.3343  23.2633  25.3762  26.1401  27.0732
    28.2937  29.3110  30.2040  34.1221  37.6848  39.0259  40.5327  40.5621
    41.7404  42.0551

          k = 0.0500 0.0500 0.0000 (   881 PWs)   bands (ev):

   -23.3317  -5.1690  -5.1618  -5.1029   8.6637  10.4541  10.5229  17.9481
    18.0940  18.2075  22.3962  22.4026  22.8499  25.8532  26.3124  26.8173
    27.7888  28.7619  29.2797  34.6582  38.7428  39.3670  40.4429  41.0021
    41.8126  42.6341

          k = 0.0250 0.0250 0.0000 (   887 PWs)   bands (ev):

   -23.3403  -5.1269  -5.1250  -5.1102   8.5653  10.4005  10.4180  18.2269
    18.2625  18.2942  22.4579  22.4597  22.5767  26.3397  26.5076  26.6586
    27.4467  28.3422  28.5247  34.9957  39.7352  39.8914  40.3713  41.1123
    41.5012  41.7238

          k = 0.0000 0.0000 0.0000 (   895 PWs)   bands (ev):

   -23.3432  -5.1126  -5.1126  -5.1126   8.5317  10.3828  10.3828  18.3240
    18.3240  18.3240  22.4802  22.4802  22.4802  26.6048  26.6048  26.6048
    27.3238  28.1706  28.1706  35.1095  40.3474  40.3474  40.3474  41.1291
    41.1291  41.1291

          k = 0.0250 0.0250 0.0250 (   883 PWs)   bands (ev):

   -23.3388  -5.1265  -5.1238  -5.1238   8.5821  10.4224  10.4224  18.1986
    18.2454  18.2454  22.5037  22.5087  22.5087  26.3697  26.3697  26.6298
    27.5100  28.5552  28.5552  34.9362  39.4989  40.0324  40.0324  41.4478
    41.4478  41.8153

          k = 0.0500 0.0500 0.0500 (   880 PWs)   bands (ev):

   -23.3259  -5.1676  -5.1569  -5.1569   8.7307  10.5404  10.5404  17.8562
    18.0155  18.0155  22.5690  22.5926  22.5926  25.9875  25.9875  26.7047
    28.0386  29.3796  29.3796  34.3965  38.4705  39.5406  39.5406  41.6793
    41.6793  42.4625

          k = 0.0750 0.0750 0.0750 (   883 PWs)   bands (ev):

   -23.3048  -5.2329  -5.2104  -5.2104   8.9706  10.7342  10.7342  17.3740
    17.6524  17.6524  22.6667  22.7275  22.7275  25.6971  25.6971  26.8293
    28.8394  30.3865  30.3865  33.4929  37.6909  39.0690  39.0690  40.9340
    40.9340  42.8202

          k = 0.1000 0.1000 0.1000 (   871 PWs)   bands (ev):

   -23.2759  -5.3182  -5.2817  -5.2817   9.2891  10.9998  10.9998  16.8312
    17.1836  17.1836  22.7881  22.9077  22.9077  25.5490  25.5490  27.0036
    29.8319  31.4924  31.4924  32.3334  37.1659  38.6367  38.6367  39.8849
    39.8849  42.7350

          k = 0.1250 0.1250 0.1250 (   865 PWs)   bands (ev):

   -23.2399  -5.4186  -5.3677  -5.3677   9.6669  11.3314  11.3314  16.2947
    16.6421  16.6421  22.9237  23.1279  23.1279  25.5454  25.5454  27.2272
    30.7658  31.2452  32.6398  32.6398  36.8237  38.2009  38.2009  38.9174
    38.9174  42.2489

          k = 0.1500 0.1500 0.1500 (   871 PWs)   bands (ev):

   -23.1978  -5.5288  -5.4650  -5.4650  10.0742  11.7206  11.7206  15.8231
    16.0620  16.0620  23.0571  23.3832  23.3832  25.6749  25.6749  27.4998
    29.7002  32.2119  33.7294  33.7294  36.6273  37.5908  37.5908  38.3279
    38.3279  41.6095

          k = 0.1750 0.1750 0.1750 (   868 PWs)   bands (ev):

   -23.1506  -5.6439  -5.5700  -5.5700  10.4666  12.1539  12.1539  15.4770
    15.4778  15.4778  23.1551  23.6705  23.6705  25.9222  25.9222  27.8210
    28.4907  33.3633  34.4563  34.4563  36.6019  37.0840  37.0840  38.1417
    38.1417  40.9438

          k = 0.2000 0.2000 0.2000 (   874 PWs)   bands (ev):

   -23.0993  -5.7594  -5.6791  -5.6791  10.7838  12.6016  12.6016  14.9347
    14.9347  15.3246  23.1501  23.9871  23.9871  26.2715  26.2715  27.4460
    28.1900  34.2996  34.2996  34.3023  36.8427  37.1669  37.1669  38.3803
    38.3803  40.3508

          k = 0.2250 0.2250 0.2250 (   868 PWs)   bands (ev):

   -23.0452  -5.8717  -5.7892  -5.7892  10.9681  12.9712  12.9712  14.5361
    14.5361  15.4263  22.9272  24.3308  24.3308  26.7029  26.7062  26.7062
    28.6062  33.5568  33.5568  34.8425  37.3048  37.3048  37.3070  39.2549
    39.2549  40.0542

          k = 0.2500 0.2500 0.2500 (   886 PWs)   bands (ev):

   -22.9898  -5.9779  -5.8973  -5.8973  11.0047  13.0179  13.0179  14.5332
    14.5332  15.7960  22.3965  24.6975  24.6975  26.3620  27.2075  27.2075
    29.0681  32.6727  32.6727  35.0848  37.3504  37.3504  37.4294  40.3861
    40.3861  40.5009

          k = 0.2750 0.2750 0.2750 (   880 PWs)   bands (ev):

   -22.9342  -6.0760  -6.0008  -6.0008  10.9326  12.7106  12.7106  14.9616
    14.9616  16.3899  21.6210  25.0796  25.0796  26.3680  27.7472  27.7472
    29.5745  31.7982  31.7982  35.2183  37.0451  37.3937  37.3937  41.2209
    41.2209  41.5792

          k = 0.3000 0.3000 0.3000 (   880 PWs)   bands (ev):

   -22.8799  -6.1645  -6.0977  -6.0977  10.8088  12.2991  12.2991  15.5737
    15.5737  17.1435  20.7390  25.4600  25.4600  26.5878  28.2638  28.2638
    30.1227  31.0347  31.0347  35.3246  36.4814  37.4369  37.4369  41.1396
    41.1396  42.0670

          k = 0.3250 0.3250 0.3250 (   880 PWs)   bands (ev):

   -22.8283  -6.2425  -6.1863  -6.1863  10.6774  11.8900  11.8900  16.2635
    16.2635  18.0003  19.8480  25.7995  25.7995  26.9288  28.5885  28.5885
    30.5889  30.5889  30.7093  35.3733  35.9457  37.4204  37.4204  40.5879
    40.5879  41.0060

          k = 0.3500 0.3500 0.3500 (   886 PWs)   bands (ev):

   -22.7807  -6.3099  -6.2652  -6.2652  10.5642  11.5153  11.5153  16.9985
    16.9985  18.8890  19.0289  26.0034  26.0034  27.3418  28.5356  28.5356
    30.7293  30.7293  31.3293  35.0502  35.8050  37.2212  37.2212  39.6848
    40.1786  40.1786

          k = 0.3750 0.3750 0.3750 (   895 PWs)   bands (ev):

   -22.7381  -6.3664  -6.3333  -6.3333  10.4814  11.1878  11.1878  17.7642
    17.7642  18.2245  19.8598  25.9038  25.9038  27.7988  28.4358  28.4358
    31.2727  31.2727  31.9742  34.4924  35.9170  36.7567  36.7567  38.4123
    40.1358  40.1358

          k = 0.4000 0.4000 0.4000 (   889 PWs)   bands (ev):

   -22.7017  -6.4121  -6.3898  -6.3898  10.4316  10.9141  10.9141  17.5528
    18.5501  18.5501  20.7765  25.4393  25.4393  28.2803  28.5937  28.5937
    31.9433  31.9433  32.6296  33.9383  35.9150  36.1172  36.1172  37.3913
    40.4063  40.4063

          k = 0.4250 0.4250 0.4250 (   892 PWs)   bands (ev):

   -22.6724  -6.4473  -6.4343  -6.4343  10.4103  10.6981  10.6981  16.9999
    19.3443  19.3443  21.6211  24.7601  24.7601  28.7653  28.9305  28.9305
    32.6167  32.6167  33.2697  33.4377  35.3784  35.4496  35.4496  37.0441
    40.6790  40.6790

          k = 0.4500 0.4500 0.4500 (   891 PWs)   bands (ev):

   -22.6510  -6.4722  -6.4663  -6.4663  10.4082  10.5423  10.5423  16.5859
    20.1243  20.1243  22.3240  24.0133  24.0133  29.2201  29.3054  29.3054
    33.0274  33.1990  33.1990  33.8471  34.5554  34.8759  34.8759  37.1501
    40.2300  40.2300

          k = 0.4750 0.4750 0.4750 (   906 PWs)   bands (ev):

   -22.6379  -6.4871  -6.4857  -6.4857  10.4136  10.4481  10.4481  16.3285
    20.8228  20.8228  22.8005  23.3210  23.3210  29.5766  29.6035  29.6035
    32.7516  33.5642  33.5642  33.9053  34.2762  34.5242  34.5242  37.3019
    39.7468  39.7468

          k = 0.5000 0.5000 0.5000 (   912 PWs)   bands (ev):

   -22.6335  -6.4921  -6.4921  -6.4921  10.4166  10.4166  10.4166  16.2410
    21.1734  21.1734  22.9708  22.9708  22.9708  29.7198  29.7198  29.7198
    32.6537  33.6547  33.6547  33.6547  34.4408  34.4408  34.4408  37.3654
    39.5618  39.5618

     Writing all to output data dir ./work/POSCAR.save/

     init_run     :      0.25s CPU      0.28s WALL (       1 calls)
     electrons    :      2.50s CPU      2.77s WALL (       1 calls)

     Called by init_run:
     wfcinit      :      0.00s CPU      0.01s WALL (       1 calls)
     potinit      :      0.16s CPU      0.18s WALL (       1 calls)
     hinit0       :      0.07s CPU      0.08s WALL (       1 calls)

     Called by electrons:
     c_bands      :      2.50s CPU      2.77s WALL (       1 calls)
     v_of_rho     :      0.00s CPU      0.00s WALL (       1 calls)
     newd         :      0.00s CPU      0.00s WALL (       1 calls)
     PAW_pot      :      0.03s CPU      0.03s WALL (       1 calls)

     Called by c_bands:
     init_us_2    :      0.00s CPU      0.00s WALL (      91 calls)
     init_us_2:cp :      0.00s CPU      0.00s WALL (      91 calls)
     cegterg      :      2.31s CPU      2.36s WALL (     113 calls)

     Called by *egterg:
     cdiaghg      :      0.84s CPU      0.86s WALL (    1685 calls)
     h_psi        :      1.23s CPU      1.26s WALL (    1798 calls)
     s_psi        :      0.02s CPU      0.02s WALL (    1798 calls)
     g_psi        :      0.01s CPU      0.01s WALL (    1594 calls)

     Called by h_psi:
     h_psi:calbec :      0.06s CPU      0.06s WALL (    1798 calls)
     vloc_psi     :      1.15s CPU      1.18s WALL (    1798 calls)
     add_vuspsi   :      0.02s CPU      0.02s WALL (    1798 calls)

     General routines
     calbec       :      0.05s CPU      0.06s WALL (    1798 calls)
     fft          :      0.05s CPU      0.06s WALL (      13 calls)
     ffts         :      0.13s CPU      0.13s WALL (       1 calls)
     fftw         :      1.06s CPU      1.08s WALL (   50874 calls)
     interpolate  :      0.13s CPU      0.13s WALL (       1 calls)
     davcio       :      0.00s CPU      0.15s WALL (     182 calls)

     Parallel routines

     PWSCF        :      3.07s CPU      4.08s WALL


   This run was terminated on:  22:39:32  15May2024            

=------------------------------------------------------------------------------=
   JOB DONE.
=------------------------------------------------------------------------------=
