
     Program PWSCF v.7.1 starts on 15May2024 at 22:39:24 

     This program is part of the open-source Quantum ESPRESSO suite
     for quantum simulation of materials; please cite
         "P. Giannozzi et al., J. Phys.:Condens. Matter 21 395502 (2009);
         "P. Giannozzi et al., J. Phys.:Condens. Matter 29 465901 (2017);
         "P. Giannozzi et al., J. Chem. Phys. 152 154105 (2020);
          URL http://www.quantum-espresso.org", 
     in publications or presentations arising from this work. More details at
     http://www.quantum-espresso.org/quote

     Parallel version (MPI & OpenMP), running on      10 processor cores
     Number of MPI processes:                10
     Threads/MPI process:                     1

     MPI processes distributed on     1 nodes
     14554 MiB available memory on the printing compute node when the environment starts

     Waiting for input...
     Reading input from standard input

     Current dimensions of program PWSCF are:
     Max number of different atomic species (ntypx) = 10
     Max number of k-points (npk) =  40000
     Max angular momentum in pseudopotentials (lmaxx) =  4
     file Ce.pbe-spdn-kjpaw_psl.1.0.0.UPF: wavefunction(s)  5D renormalized
     Message from routine setup:
     using ibrav=0 with symmetry is DISCOURAGED, use correct ibrav instead

     R & G space division:  proc/nbgrp/npool/nimage =      10
     Subspace diagonalization in iterative solution of the eigenvalue problem:
     a serial algorithm will be used


     Parallelization info
     --------------------
     sticks:   dense  smooth     PW     G-vecs:    dense   smooth      PW
     Min          54      43     14                  931      697     134
     Max          55      44     15                  932      700     137
     Sum         545     437    145                 9315     6979    1357

     Using Slab Decomposition



     bravais-lattice index     =            0
     lattice parameter (alat)  =       6.1301  a.u.
     unit-cell volume          =     230.3621 (a.u.)^3
     number of atoms/cell      =            1
     number of atomic types    =            1
     number of electrons       =        11.00
     number of Kohn-Sham states=           26
     kinetic-energy cutoff     =      37.0000  Ry
     charge density cutoff     =     179.0000  Ry
     scf convergence threshold =      7.3E-05
     mixing beta               =       0.7000
     number of iterations used =            8  plain     mixing
     Exchange-correlation= SLA  PW   PBX  PBC
                           (   1   4   3   4   0   0   0)

     celldm(1)=   6.130139  celldm(2)=   0.000000  celldm(3)=   0.000000
     celldm(4)=   0.000000  celldm(5)=   0.000000  celldm(6)=   0.000000

     crystal axes: (cart. coord. in units of alat)
               a(1) = (   1.000000   0.000000   0.000000 )  
               a(2) = (   0.000000   1.000000   0.000000 )  
               a(3) = (   0.000000   0.000000   1.000000 )  

     reciprocal axes: (cart. coord. in units 2 pi/alat)
               b(1) = (  1.000000  0.000000  0.000000 )  
               b(2) = (  0.000000  1.000000  0.000000 )  
               b(3) = (  0.000000  0.000000  1.000000 )  


     PseudoPot. # 1 for Ce read from file:
     ./../../../../pseudo/psl100_PBE/Ce.pbe-spdn-kjpaw_psl.1.0.0.UPF
     MD5 check sum: 1a25380276e46fcecd5a173acdad072c
     Pseudo is Projector augmented-wave + core cor, Zval = 11.0
     Generated using 'atomic' code by A. Dal Corso  v.7.2
     Shape of augmentation charge: PSQ
     Using radial grid of 1255 points,  6 beta functions with: 
                l(1) =   0
                l(2) =   0
                l(3) =   1
                l(4) =   1
                l(5) =   2
                l(6) =   2
     Q(r) pseudized with 0 coefficients 


     atomic species   valence    mass     pseudopotential
        Ce            11.00   140.11600     Ce( 1.00)

     48 Sym. Ops., with inversion, found



   Cartesian axes

     site n.     atom                  positions (alat units)
         1           Ce  tau(   1) = (   0.0000000   0.0000000   0.0000000  )

     number of k points=    56  Methfessel-Paxton smearing, width (Ry)=  0.0200
                       cart. coord. in units 2pi/alat
        k(    1) = (   0.0000000   0.0000000   0.0000000), wk =   0.0020000
        k(    2) = (   0.0000000   0.0000000   0.1000000), wk =   0.0120000
        k(    3) = (   0.0000000   0.0000000   0.2000000), wk =   0.0120000
        k(    4) = (   0.0000000   0.0000000   0.3000000), wk =   0.0120000
        k(    5) = (   0.0000000   0.0000000   0.4000000), wk =   0.0120000
        k(    6) = (   0.0000000   0.0000000  -0.5000000), wk =   0.0060000
        k(    7) = (   0.0000000   0.1000000   0.1000000), wk =   0.0240000
        k(    8) = (   0.0000000   0.1000000   0.2000000), wk =   0.0480000
        k(    9) = (   0.0000000   0.1000000   0.3000000), wk =   0.0480000
        k(   10) = (   0.0000000   0.1000000   0.4000000), wk =   0.0480000
        k(   11) = (   0.0000000   0.1000000  -0.5000000), wk =   0.0240000
        k(   12) = (   0.0000000   0.2000000   0.2000000), wk =   0.0240000
        k(   13) = (   0.0000000   0.2000000   0.3000000), wk =   0.0480000
        k(   14) = (   0.0000000   0.2000000   0.4000000), wk =   0.0480000
        k(   15) = (   0.0000000   0.2000000  -0.5000000), wk =   0.0240000
        k(   16) = (   0.0000000   0.3000000   0.3000000), wk =   0.0240000
        k(   17) = (   0.0000000   0.3000000   0.4000000), wk =   0.0480000
        k(   18) = (   0.0000000   0.3000000  -0.5000000), wk =   0.0240000
        k(   19) = (   0.0000000   0.4000000   0.4000000), wk =   0.0240000
        k(   20) = (   0.0000000   0.4000000  -0.5000000), wk =   0.0240000
        k(   21) = (   0.0000000  -0.5000000  -0.5000000), wk =   0.0060000
        k(   22) = (   0.1000000   0.1000000   0.1000000), wk =   0.0160000
        k(   23) = (   0.1000000   0.1000000   0.2000000), wk =   0.0480000
        k(   24) = (   0.1000000   0.1000000   0.3000000), wk =   0.0480000
        k(   25) = (   0.1000000   0.1000000   0.4000000), wk =   0.0480000
        k(   26) = (   0.1000000   0.1000000  -0.5000000), wk =   0.0240000
        k(   27) = (   0.1000000   0.2000000   0.2000000), wk =   0.0480000
        k(   28) = (   0.1000000   0.2000000   0.3000000), wk =   0.0960000
        k(   29) = (   0.1000000   0.2000000   0.4000000), wk =   0.0960000
        k(   30) = (   0.1000000   0.2000000  -0.5000000), wk =   0.0480000
        k(   31) = (   0.1000000   0.3000000   0.3000000), wk =   0.0480000
        k(   32) = (   0.1000000   0.3000000   0.4000000), wk =   0.0960000
        k(   33) = (   0.1000000   0.3000000  -0.5000000), wk =   0.0480000
        k(   34) = (   0.1000000   0.4000000   0.4000000), wk =   0.0480000
        k(   35) = (   0.1000000   0.4000000  -0.5000000), wk =   0.0480000
        k(   36) = (   0.1000000  -0.5000000  -0.5000000), wk =   0.0120000
        k(   37) = (   0.2000000   0.2000000   0.2000000), wk =   0.0160000
        k(   38) = (   0.2000000   0.2000000   0.3000000), wk =   0.0480000
        k(   39) = (   0.2000000   0.2000000   0.4000000), wk =   0.0480000
        k(   40) = (   0.2000000   0.2000000  -0.5000000), wk =   0.0240000
        k(   41) = (   0.2000000   0.3000000   0.3000000), wk =   0.0480000
        k(   42) = (   0.2000000   0.3000000   0.4000000), wk =   0.0960000
        k(   43) = (   0.2000000   0.3000000  -0.5000000), wk =   0.0480000
        k(   44) = (   0.2000000   0.4000000   0.4000000), wk =   0.0480000
        k(   45) = (   0.2000000   0.4000000  -0.5000000), wk =   0.0480000
        k(   46) = (   0.2000000  -0.5000000  -0.5000000), wk =   0.0120000
        k(   47) = (   0.3000000   0.3000000   0.3000000), wk =   0.0160000
        k(   48) = (   0.3000000   0.3000000   0.4000000), wk =   0.0480000
        k(   49) = (   0.3000000   0.3000000  -0.5000000), wk =   0.0240000
        k(   50) = (   0.3000000   0.4000000   0.4000000), wk =   0.0480000
        k(   51) = (   0.3000000   0.4000000  -0.5000000), wk =   0.0480000
        k(   52) = (   0.3000000  -0.5000000  -0.5000000), wk =   0.0120000
        k(   53) = (   0.4000000   0.4000000   0.4000000), wk =   0.0160000
        k(   54) = (   0.4000000   0.4000000  -0.5000000), wk =   0.0240000
        k(   55) = (   0.4000000  -0.5000000  -0.5000000), wk =   0.0120000
        k(   56) = (  -0.5000000  -0.5000000  -0.5000000), wk =   0.0020000

     Dense  grid:     9315 G-vectors     FFT dimensions: (  27,  27,  27)

     Smooth grid:     6979 G-vectors     FFT dimensions: (  24,  24,  24)

     Estimated max dynamical RAM per process >       6.26 MB

     Estimated total dynamical RAM >      62.61 MB

     Initial potential from superposition of free atoms

     starting charge      10.9735, renormalised to      11.0000
     Starting wfcs are   13 randomized atomic wfcs +   13 random wfcs
     Checking if some PAW data can be deallocated... 

     total cpu time spent up to now is        0.6 secs

     per-process dynamical memory:    13.4 Mb

     Self-consistent Calculation

     iteration #  1     ecut=    37.00 Ry     beta= 0.70
     Davidson diagonalization with overlap
     ethr =  1.00E-02,  avg # of iterations =  7.1

     Threshold (ethr) on eigenvalues was too large:
     Diagonalizing with lowered threshold

     Davidson diagonalization with overlap
     ethr =  6.30E-05,  avg # of iterations =  3.6

     total cpu time spent up to now is        1.8 secs

     total energy              =    -471.69496343 Ry
     estimated scf accuracy    <       0.00712679 Ry

     iteration #  2     ecut=    37.00 Ry     beta= 0.70
     Davidson diagonalization with overlap
     ethr =  6.48E-05,  avg # of iterations =  1.6

     total cpu time spent up to now is        2.2 secs

     total energy              =    -471.69668972 Ry
     estimated scf accuracy    <       0.00041957 Ry

     iteration #  3     ecut=    37.00 Ry     beta= 0.70
     Davidson diagonalization with overlap
     ethr =  3.81E-06,  avg # of iterations =  2.8

     total cpu time spent up to now is        2.7 secs

     End of self-consistent calculation

          k = 0.0000 0.0000 0.0000 (   895 PWs)   bands (ev):

   -23.3399  -5.1106  -5.1106  -5.1106   8.5308  10.3815  10.3815  18.3248
    18.3248  18.3248  22.4779  22.4779  22.4779  26.6020  26.6020  26.6020
    27.3278  28.1703  28.1703  35.1089  40.3446  40.3446  40.3446  41.1312
    41.1312  41.1312

          k = 0.0000 0.0000 0.1000 (   888 PWs)   bands (ev):

   -23.3174  -5.3324  -5.0918  -5.0918   8.7750  10.4512  10.7396  17.6776
    17.6776  18.3650  21.5872  23.1062  23.1062  24.9021  27.0480  27.0480
    27.8117  29.0019  30.1840  34.3622  38.3379  38.3379  39.5550  40.9685
    41.4274  43.1110

          k = 0.0000 0.0000 0.2000 (   864 PWs)   bands (ev):

   -23.2577  -5.8719  -5.0420  -5.0420   9.3118  10.6442  11.7870  16.5061
    16.5061  18.4735  20.1570  22.9584  24.1158  24.1158  28.1047  28.4421
    28.4421  31.3654  33.0208  33.0755  36.0159  36.3345  36.3345  38.4112
    43.7839  44.2366

          k = 0.0000 0.0000 0.3000 (   868 PWs)   bands (ev):

   -23.1822  -6.4746  -4.9794  -4.9794   9.9341  10.9077  13.0346  15.4761
    15.4761  18.6143  19.4322  21.4113  24.9007  24.9007  28.0374  30.4390
    30.4390  31.8360  32.4010  33.6706  35.0082  35.0082  36.2206  37.4666
    44.3963  44.3964

          k = 0.0000 0.0000 0.4000 (   864 PWs)   bands (ev):

   -23.1198  -6.9225  -4.9279  -4.9279  10.5400  11.1466  13.5239  14.8040
    14.8040  18.7345  20.3600  20.3948  25.4478  25.4478  26.2616  31.0310
    31.0535  31.6202  31.6202  33.6484  35.5144  35.5144  39.4791  39.5255
    42.5207  42.5209

          k = 0.0000 0.0000-0.5000 (   852 PWs)   bands (ev):

   -23.0956  -7.0858  -4.9080  -4.9080  10.8396  11.2456  13.4606  14.5722
    14.5722  18.7821  20.0358  22.0783  24.0482  25.6625  25.6625  30.7809
    31.0620  31.6478  31.6478  33.2043  37.1915  37.1915  40.1883  40.1883
    42.3695  42.6907

          k = 0.0000 0.1000 0.1000 (   871 PWs)   bands (ev):

   -23.2949  -5.3246  -5.2996  -5.0730   9.0253  10.6729  10.9315  16.9948
    17.5773  17.8949  22.1246  22.2609  23.7789  24.9676  26.0433  27.4135
    28.9057  29.9314  31.2352  33.4407  36.6278  38.8604  39.6092  40.7256
    41.1609  41.9270

          k = 0.0000 0.1000 0.2000 (   868 PWs)   bands (ev):

   -23.2354  -5.8492  -5.2579  -5.0236   9.5589  10.9243  11.8860  15.8337
    16.5453  17.9062  20.7067  23.0897  23.4910  24.9043  27.3001  28.6412
    29.5616  31.9474  31.9509  33.8015  34.7584  36.1491  37.6301  40.2554
    40.9016  42.5937

          k = 0.0000 0.1000 0.3000 (   867 PWs)   bands (ev):

   -23.1602  -6.4486  -5.1908  -4.9613  10.1610  11.1979  12.9039  15.1472
    15.5335  18.0620  19.8084  22.0282  23.8062  25.7435  29.1083  29.5025
    29.9831  31.3880  32.3586  33.5380  35.0485  36.3067  36.6497  39.0373
    41.1433  44.3880

          k = 0.0000 0.1000 0.4000 (   866 PWs)   bands (ev):

   -23.0979  -6.8946  -5.1354  -4.9101  10.7560  11.4681  12.7938  14.8675
    15.2593  18.2010  20.4082  21.1031  24.3046  26.3150  26.8220  29.3653
    30.2012  31.9417  33.0898  34.1390  35.9045  36.0600  39.0256  40.2261
    41.7373  42.1321

          k = 0.0000 0.1000-0.5000 (   866 PWs)   bands (ev):

   -23.0738  -7.0573  -5.1140  -4.8904  11.0620  11.6331  12.4707  14.6371
    15.2760  18.2568  20.6791  21.9471  24.1288  25.0486  26.5528  29.0238
    29.9968  32.1831  33.5560  35.0502  36.5981  37.2372  38.9719  40.0955
    40.3884  42.8388

          k = 0.0000 0.2000 0.2000 (   868 PWs)   bands (ev):

   -23.1764  -5.8161  -5.7574  -4.9748  10.0316  11.4923  12.4380  14.8091
    16.4901  16.9958  21.1665  21.8196  24.3491  26.3835  26.6054  29.4341
    30.3934  31.0834  32.4198  33.3910  35.7106  35.8145  38.0681  39.2342
    41.8338  42.6965

          k = 0.0000 0.2000 0.3000 (   870 PWs)   bands (ev):

   -23.1017  -6.3800  -5.7076  -4.9135  10.5024  11.6337  13.1042  14.8476
    15.6849  16.9911  20.2729  22.2377  23.6513  27.2733  28.1668  29.1404
    30.2319  31.1092  31.4132  34.3000  35.2071  37.2581  38.6216  39.3026
    41.4924  43.7935

          k = 0.0000 0.2000 0.4000 (   869 PWs)   bands (ev):

   -23.0400  -6.8202  -5.6441  -4.8631  10.9124  11.4870  13.0387  15.0418
    15.7945  17.1433  20.4624  22.6076  23.1012  27.0471  27.3191  28.6877
    28.7114  32.2892  34.0159  34.6627  36.0544  37.7512  38.1858  39.7433
    41.0962  42.8961

          k = 0.0000 0.2000-0.5000 (   872 PWs)   bands (ev):

   -23.0160  -6.9811  -5.6193  -4.8437  11.1162  11.3488  13.0189  14.8162
    16.0198  17.2088  21.4310  22.2305  24.2597  24.3318  27.1802  28.2967
    28.6976  34.4045  35.5420  35.7459  36.0362  36.2580  37.3613  38.9835
    41.0484  43.0362

          k = 0.0000 0.3000 0.3000 (   880 PWs)   bands (ev):

   -23.0279  -6.3173  -6.2643  -4.8536  10.5492  11.4076  14.5400  15.0252
    15.7659  16.1387  20.2817  21.5778  24.7145  26.8153  28.1980  29.2447
    30.4856  30.5535  32.0906  32.5890  37.1592  37.3324  40.3862  40.8084
    41.7601  43.1331

          k = 0.0000 0.3000 0.4000 (   871 PWs)   bands (ev):

   -22.9668  -6.7257  -6.2171  -4.8042  10.1754  11.5629  14.9113  15.2758
    16.1680  16.2454  20.2628  22.1950  24.3596  26.0145  26.8082  28.5362
    30.9382  31.3495  32.3291  34.4867  37.6090  37.9763  39.7897  40.2182
    42.4236  43.1370

          k = 0.0000 0.3000-0.5000 (   878 PWs)   bands (ev):

   -22.9431  -6.8842  -6.1892  -4.7851   9.9941  11.6814  14.9874  15.0587
    16.2371  16.6205  20.6637  23.6991  24.0281  24.3350  25.7144  27.9670
    31.5015  31.9437  34.2875  34.8295  37.4648  37.5228  37.8744  41.5433
    42.2378  42.4576

          k = 0.0000 0.4000 0.4000 (   878 PWs)   bands (ev):

   -22.9062  -6.6559  -6.6368  -4.7557   9.5052  11.8567  15.4408  15.5651
    16.5498  16.6294  20.1482  22.6188  24.1913  25.0832  26.5195  28.6041
    29.8747  31.2291  34.2003  35.0617  36.1817  40.3386  41.0012  41.0716
    41.1405  41.4788

          k = 0.0000 0.4000-0.5000 (   876 PWs)   bands (ev):

   -22.8827  -6.8033  -6.6156  -4.7370   9.2669  11.9878  15.2765  15.5906
    16.7345  17.0915  20.4337  23.7923  24.1856  24.3889  24.7528  28.3953
    29.6236  33.4955  33.7666  34.7019  37.6614  38.4562  39.4923  41.1606
    41.8213  43.2889

          k = 0.0000-0.5000-0.5000 (   872 PWs)   bands (ev):

   -22.8593  -6.7717  -6.7717  -4.7184   9.0157  12.1183  15.3660  15.3660
    17.2858  17.2858  20.8363  23.4846  24.4140  24.5763  24.5763  26.4002
    31.0376  33.2167  33.2167  37.6493  37.7611  37.8078  38.7745  38.7745
    43.6479  43.6480

          k = 0.1000 0.1000 0.1000 (   871 PWs)   bands (ev):

   -23.2726  -5.3163  -5.2798  -5.2798   9.2883  10.9986  10.9986  16.8310
    17.1836  17.1836  22.7884  22.9062  22.9062  25.5471  25.5471  27.0008
    29.8342  31.4914  31.4914  32.3321  37.1669  38.6361  38.6361  39.8840
    39.8840  42.7358

          k = 0.1000 0.1000 0.2000 (   869 PWs)   bands (ev):

   -23.2132  -5.8266  -5.2489  -5.2274   9.8313  11.1856  11.9713  15.8632
    15.9266  17.2556  21.4065  23.6282  23.7258  24.4434  27.1498  28.0298
    30.4637  30.9825  32.9454  34.0665  35.7923  36.3722  36.7115  40.0420
    40.7071  42.2096

          k = 0.1000 0.1000 0.3000 (   868 PWs)   bands (ev):

   -23.1382  -6.4230  -5.1815  -5.1615  10.4247  11.4471  12.8422  14.8213
    15.5241  17.4408  20.3997  22.4625  24.2207  25.2366  28.4159  29.9223
    30.0305  30.5674  32.8902  34.5577  34.9797  36.2049  37.0752  40.3630
    40.4905  42.5056

          k = 0.1000 0.1000 0.4000 (   872 PWs)   bands (ev):

   -23.0761  -6.8669  -5.1259  -5.1072  11.0474  11.6979  12.5770  14.0784
    16.1311  17.6097  20.7254  21.5332  24.6148  25.8241  27.1919  27.7206
    31.6886  32.1301  32.7921  34.5012  35.0668  37.5344  38.8693  40.4652
    41.2263  41.7987

          k = 0.1000 0.1000-0.5000 (   870 PWs)   bands (ev):

   -23.0521  -7.0290  -5.1043  -5.0862  11.4864  11.8096  12.1544  13.8100
    16.3224  17.6802  21.2040  22.0056  24.1646  25.7181  26.0487  27.2787
    31.9128  32.1147  33.2765  36.4828  36.6263  36.6341  39.1735  39.3082
    39.3881  42.5706

          k = 0.1000 0.2000 0.2000 (   874 PWs)   bands (ev):

   -23.1543  -5.7938  -5.7355  -5.1855  10.3267  11.7394  12.4841  14.8743
    15.9583  16.2232  22.1773  22.4981  24.5228  25.6712  26.6407  28.5917
    29.0501  32.4156  33.3496  34.7544  35.6301  36.1332  37.9969  38.4359
    39.8091  42.2198

          k = 0.1000 0.2000 0.3000 (   875 PWs)   bands (ev):

   -23.0799  -6.3549  -5.6861  -5.1201  10.7590  11.8939  13.1205  14.4221
    15.6806  16.3335  21.1361  23.0030  23.8475  26.2749  27.5532  28.9478
    30.4556  30.9111  32.2993  35.1170  35.7341  37.0696  37.9795  39.6701
    41.6100  42.3088

          k = 0.1000 0.2000 0.4000 (   877 PWs)   bands (ev):

   -23.0183  -6.7932  -5.6230  -5.0661  11.0566  11.8579  13.0756  13.8771
    16.5214  16.8448  21.0012  23.0206  23.5253  25.7275  27.3539  27.9630
    30.3576  32.6547  33.1475  35.5575  35.8388  36.6732  39.2940  40.1438
    41.0312  42.1256

          k = 0.1000 0.2000-0.5000 (   876 PWs)   bands (ev):

   -22.9945  -6.9534  -5.5984  -5.0453  11.1332  11.8560  13.0677  13.6099
    16.6129  17.2963  21.8544  22.5903  24.0045  24.8308  25.8750  28.0009
    30.2426  34.4085  35.0382  35.9439  35.9523  36.4518  37.0602  39.1900
    40.7991  42.1836

          k = 0.1000 0.3000 0.3000 (   870 PWs)   bands (ev):

   -23.0062  -6.2925  -6.2402  -5.0561  10.6590  11.8247  14.2574  14.4082
    15.7218  16.0754  21.3123  22.1422  24.4353  26.1362  28.2919  29.6531
    30.4922  30.7969  31.4051  32.8976  37.8978  38.2214  39.5352  40.8742
    41.3163  41.3479

          k = 0.1000 0.3000 0.4000 (   876 PWs)   bands (ev):

   -22.9453  -6.6995  -6.1934  -5.0034  10.2549  12.0359  14.0630  14.4969
    16.0435  17.3309  21.0286  22.5330  23.7456  25.6542  27.4297  29.4655
    30.4708  31.3204  32.3747  33.8413  37.8044  38.5941  38.9654  41.2060
    41.6374  42.3584

          k = 0.1000 0.3000-0.5000 (   882 PWs)   bands (ev):

   -22.9217  -6.8573  -6.1657  -4.9831  10.0747  12.1819  13.8136  14.5674
    16.1475  17.9720  21.3281  23.0040  23.9810  24.3435  26.1067  29.2093
    30.6508  32.0856  34.3530  34.9430  36.5013  37.0167  38.8645  40.5459
    42.2024  42.9384

          k = 0.1000 0.4000 0.4000 (   874 PWs)   bands (ev):

   -22.8849  -6.6302  -6.6115  -4.9518   9.5979  12.3473  14.2706  14.3335
    17.4259  17.7863  20.8028  22.1872  23.3998  26.4296  26.6370  28.8093
    30.2769  31.3101  33.6227  34.3680  36.2575  40.1417  40.4476  40.6550
    42.0540  42.0980

          k = 0.1000 0.4000-0.5000 (   872 PWs)   bands (ev):

   -22.8615  -6.7772  -6.5904  -4.9318   9.3630  12.5044  14.0639  14.4057
    17.7181  18.4432  20.8582  22.0176  24.4045  24.6238  26.3981  28.3747
    30.0701  33.5616  33.8911  34.0769  37.1803  37.5164  39.5960  40.7698
    42.2612  42.3944

          k = 0.1000-0.5000-0.5000 (   872 PWs)   bands (ev):

   -22.8381  -6.7460  -6.7460  -4.9120   9.1151  12.6592  14.1747  14.1747
    18.6328  18.6328  20.8667  21.6286  24.8063  24.8063  26.2662  26.4054
    31.3889  33.2875  33.2875  37.1842  37.2858  37.8389  37.8389  37.9225
    43.0669  43.0683

          k = 0.2000 0.2000 0.2000 (   874 PWs)   bands (ev):

   -23.0959  -5.7577  -5.6774  -5.6774  10.7835  12.6006  12.6006  14.9340
    14.9340  15.3234  23.1524  23.9867  23.9867  26.2692  26.2692  27.4443
    28.1873  34.2992  34.2992  34.3038  36.8433  37.1666  37.1666  38.3791
    38.3791  40.3513

          k = 0.2000 0.2000 0.3000 (   876 PWs)   bands (ev):

   -23.0220  -6.2882  -5.6509  -5.6041  11.0007  12.7013  13.1273  13.9064
    15.2305  15.9324  22.3443  23.6992  24.5715  26.1444  26.2238  28.9147
    29.4716  31.2203  34.2793  34.6551  35.9481  37.5015  38.5994  39.7286
    40.4787  40.9716

          k = 0.2000 0.2000 0.4000 (   870 PWs)   bands (ev):

   -22.9609  -6.7212  -5.5880  -5.5435  11.0126  12.6076  12.9968  13.4465
    15.5736  17.7499  21.7821  23.3009  23.9498  25.6955  26.9066  27.8688
    31.5971  31.8880  33.7950  34.4567  35.5225  37.9166  38.9747  40.1408
    40.1427  42.1982

          k = 0.2000 0.2000-0.5000 (   878 PWs)   bands (ev):

   -22.9372  -6.8797  -5.5634  -5.5201  10.9775  12.4847  12.9523  13.3887
    15.6904  18.7051  22.2874  22.6664  23.6825  25.5987  26.1919  27.1666
    32.6390  32.8429  34.4250  35.4680  36.1112  36.5180  38.0923  38.1190
    39.6043  42.9798

          k = 0.2000 0.3000 0.3000 (   869 PWs)   bands (ev):

   -22.9489  -6.2268  -6.1766  -5.5534  10.8215  12.5592  13.3158  14.0623
    15.4986  16.4816  21.9844  23.3920  25.1308  25.8203  28.3037  28.4788
    30.0775  30.8514  32.4898  33.6152  37.5509  38.1302  39.1288  40.4872
    40.7118  41.1081

          k = 0.2000 0.3000 0.4000 (   881 PWs)   bands (ev):

   -22.8884  -6.6298  -6.1305  -5.4935  10.4494  12.4093  13.0824  14.1055
    16.0944  18.3422  21.2457  22.8443  24.9073  25.8460  27.8056  29.0000
    30.9606  31.7583  32.4849  33.1824  36.9239  37.9542  39.0032  40.3021
    40.9555  41.7372

          k = 0.2000 0.3000-0.5000 (   884 PWs)   bands (ev):

   -22.8650  -6.7860  -6.1035  -5.4702  10.2823  12.3205  13.0274  14.1581
    16.2289  19.6118  21.2118  22.3245  24.9150  25.5478  26.4215  29.2880
    31.5418  31.8814  34.5208  34.7487  35.5357  35.9672  38.7042  38.8749
    40.9272  43.2341

          k = 0.2000 0.4000 0.4000 (   878 PWs)   bands (ev):

   -22.8284  -6.5621  -6.5443  -5.4349   9.8584  12.5263  12.8423  14.1229
    18.0378  19.0172  20.3551  22.4876  24.6886  27.0228  27.2507  28.8351
    31.5294  31.9645  32.5772  33.1162  36.4536  38.1850  39.1618  39.5374
    40.7703  41.4139

          k = 0.2000 0.4000-0.5000 (   876 PWs)   bands (ev):

   -22.8052  -6.7079  -6.5235  -5.4121   9.6353  12.5279  12.7821  14.1553
    18.5249  19.8477  20.4552  21.9135  25.2139  25.4364  27.7110  28.2237
    31.5542  32.8844  33.7567  34.3318  35.9291  36.1316  38.5280  39.8481
    40.0449  40.8571

          k = 0.2000-0.5000-0.5000 (   868 PWs)   bands (ev):

   -22.7820  -6.6775  -6.6775  -5.3896   9.3986  12.6418  12.6418  14.1726
    19.5937  20.5044  20.5044  20.9481  25.5863  25.5863  26.3483  28.0467
    32.6559  33.4835  33.4835  36.0939  36.2380  36.2380  36.2909  38.2548
    38.9655  41.7014

          k = 0.3000 0.3000 0.3000 (   880 PWs)   bands (ev):

   -22.8764  -6.1629  -6.0962  -6.0962  10.8084  12.2979  12.2979  15.5730
    15.5730  17.1419  20.7406  25.4604  25.4604  26.5878  28.2615  28.2615
    30.1202  31.0341  31.0341  35.3263  36.4805  37.4369  37.4369  41.1404
    41.1404  42.0663

          k = 0.3000 0.3000 0.4000 (   882 PWs)   bands (ev):

   -22.8165  -6.5414  -6.0697  -6.0295  10.5430  11.6066  12.2551  15.6893
    16.5617  19.0210  19.7898  24.3110  26.4234  26.7161  28.1958  28.1979
    30.9015  31.3853  31.9386  34.8689  36.0391  36.1194  38.5409  39.3821
    40.1780  42.0474

          k = 0.3000 0.3000-0.5000 (   876 PWs)   bands (ev):

   -22.7933  -6.6954  -6.0432  -6.0036  10.3961  11.3656  12.3089  15.7400
    16.7662  19.3607  21.0894  22.8191  26.4624  26.8280  27.1299  28.3833
    31.0524  33.4961  33.6566  34.5950  34.9688  35.9882  36.3819  38.1498
    40.8938  43.0726

          k = 0.3000 0.4000 0.4000 (   892 PWs)   bands (ev):

   -22.7571  -6.4758  -6.4591  -5.9830  10.2176  11.4776  11.6617  16.2184
    18.3588  18.6896  19.9245  24.3012  26.6422  27.2370  27.7750  28.5094
    31.6827  31.7302  32.2992  34.3661  35.4556  36.6985  37.6687  38.1598
    40.0596  40.8464

          k = 0.3000 0.4000-0.5000 (   890 PWs)   bands (ev):

   -22.7341  -6.6200  -6.4388  -5.9575  10.0240  11.3299  11.6656  16.3099
    18.2970  18.9668  21.7177  22.7906  26.6147  26.9448  27.7649  28.3643
    31.9935  33.2086  33.9890  34.5954  34.9803  35.4877  35.6171  38.2594
    39.6557  40.3631

          k = 0.3000-0.5000-0.5000 (   884 PWs)   bands (ev):

   -22.7111  -6.5907  -6.5907  -5.9324   9.8123  11.4365  11.4365  16.4105
    17.8915  21.0524  21.9318  21.9318  25.9413  27.0591  27.0591  29.0618
    33.7429  33.7429  34.7938  34.8655  34.8801  34.8801  35.3288  35.6037
    38.7571  40.7010

          k = 0.4000 0.4000 0.4000 (   889 PWs)   bands (ev):

   -22.6981  -6.4106  -6.3883  -6.3883  10.4306  10.9128  10.9128  17.5543
    18.5498  18.5498  20.7746  25.4384  25.4384  28.2817  28.5949  28.5949
    31.9413  31.9413  32.6277  33.9372  35.9158  36.1173  36.1174  37.3918
    40.4055  40.4057

          k = 0.4000 0.4000-0.5000 (   890 PWs)   bands (ev):

   -22.6753  -6.5470  -6.3752  -6.3609  10.3299  10.6563  10.9288  17.1302
    18.6173  19.5239  22.4786  23.1457  25.7873  28.5319  28.6561  28.7888
    32.2214  33.5793  33.7887  34.0855  34.3461  34.3737  36.4662  36.7552
    40.0866  40.6730

          k = 0.4000-0.5000-0.5000 (   892 PWs)   bands (ev):

   -22.6526  -6.5186  -6.5186  -6.3407  10.2271  10.6754  10.6754  16.6934
    19.0687  21.1400  22.7204  22.7204  24.6488  28.8438  28.8438  29.5620
    33.2291  33.7839  33.7839  34.0786  34.3127  34.3127  34.6715  36.8663
    39.2945  41.0488

          k =-0.5000-0.5000-0.5000 (   912 PWs)   bands (ev):

   -22.6299  -6.4906  -6.4906  -6.4906  10.4152  10.4152  10.4152  16.2428
    21.1743  21.1743  22.9685  22.9685  22.9685  29.7225  29.7225  29.7225
    32.6519  33.6532  33.6532  33.6532  34.4399  34.4399  34.4399  37.3691
    39.5571  39.5571

     the Fermi energy is    11.6792 ev

!    total energy              =    -471.69675399 Ry
     total all-electron energy =    -17721.221483 Ry
     estimated scf accuracy    <       0.00001271 Ry
     smearing contrib. (-TS)   =      -0.00041341 Ry
     internal energy E=F+TS    =    -471.69634058 Ry

     The total energy is F=E-TS. E is the sum of the following terms:
     one-electron contribution =      -4.97356585 Ry
     hartree contribution      =       8.28069539 Ry
     xc contribution           =     -73.22402588 Ry
     ewald contribution        =     -56.00411028 Ry
     one-center paw contrib.   =    -345.77533396 Ry

     convergence has been achieved in   3 iterations

     Writing all to output data dir ./work/POSCAR.save/

     init_run     :      0.34s CPU      0.35s WALL (       1 calls)
     electrons    :      1.55s CPU      2.09s WALL (       1 calls)

     Called by init_run:
     wfcinit      :      0.08s CPU      0.09s WALL (       1 calls)
     potinit      :      0.17s CPU      0.17s WALL (       1 calls)
     hinit0       :      0.08s CPU      0.08s WALL (       1 calls)

     Called by electrons:
     c_bands      :      1.33s CPU      1.79s WALL (       4 calls)
     sum_band     :      0.15s CPU      0.16s WALL (       4 calls)
     v_of_rho     :      0.00s CPU      0.00s WALL (       4 calls)
     newd         :      0.01s CPU      0.01s WALL (       4 calls)
     PAW_pot      :      0.10s CPU      0.14s WALL (       4 calls)
     mix_rho      :      0.00s CPU      0.00s WALL (       4 calls)

     Called by c_bands:
     init_us_2    :      0.01s CPU      0.01s WALL (     504 calls)
     init_us_2:cp :      0.01s CPU      0.01s WALL (     504 calls)
     cegterg      :      1.29s CPU      1.36s WALL (     224 calls)

     Called by *egterg:
     cdiaghg      :      0.42s CPU      0.44s WALL (    1017 calls)
     h_psi        :      0.76s CPU      0.80s WALL (    1129 calls)
     s_psi        :      0.01s CPU      0.01s WALL (    1129 calls)
     g_psi        :      0.01s CPU      0.01s WALL (     849 calls)

     Called by h_psi:
     h_psi:calbec :      0.03s CPU      0.04s WALL (    1129 calls)
     vloc_psi     :      0.71s CPU      0.75s WALL (    1129 calls)
     add_vuspsi   :      0.01s CPU      0.01s WALL (    1129 calls)

     General routines
     calbec       :      0.04s CPU      0.05s WALL (    1353 calls)
     fft          :      0.06s CPU      0.06s WALL (      51 calls)
     ffts         :      0.13s CPU      0.13s WALL (       8 calls)
     fftw         :      0.76s CPU      0.81s WALL (   40170 calls)
     interpolate  :      0.13s CPU      0.13s WALL (       4 calls)

     Parallel routines

     PWSCF        :      2.07s CPU      3.20s WALL


   This run was terminated on:  22:39:27  15May2024            

=------------------------------------------------------------------------------=
   JOB DONE.
=------------------------------------------------------------------------------=
