
     Program PWSCF v.7.1 starts on 10May2024 at 22:36:55 

     This program is part of the open-source Quantum ESPRESSO suite
     for quantum simulation of materials; please cite
         "P. Giannozzi et al., J. Phys.:Condens. Matter 21 395502 (2009);
         "P. Giannozzi et al., J. Phys.:Condens. Matter 29 465901 (2017);
         "P. Giannozzi et al., J. Chem. Phys. 152 154105 (2020);
          URL http://www.quantum-espresso.org", 
     in publications or presentations arising from this work. More details at
     http://www.quantum-espresso.org/quote

     Parallel version (MPI & OpenMP), running on      10 processor cores
     Number of MPI processes:                10
     Threads/MPI process:                     1

     MPI processes distributed on     1 nodes
     14891 MiB available memory on the printing compute node when the environment starts

     Waiting for input...
     Reading input from standard input

     Current dimensions of program PWSCF are:
     Max number of different atomic species (ntypx) = 10
     Max number of k-points (npk) =  40000
     Max angular momentum in pseudopotentials (lmaxx) =  4
     file Na.pbe-spnl-kjpaw_psl.1.0.0.UPF: wavefunction(s)  2P renormalized
     Message from routine setup:
     using ibrav=0 with symmetry is DISCOURAGED, use correct ibrav instead

     R & G space division:  proc/nbgrp/npool/nimage =      10
     Subspace diagonalization in iterative solution of the eigenvalue problem:
     a serial algorithm will be used


     Parallelization info
     --------------------
     sticks:   dense  smooth     PW     G-vecs:    dense   smooth      PW
     Min         111      91     28                 2435     1814     307
     Max         112      92     29                 2437     1817     308
     Sum        1111     913    283                24357    18149    3071

     Using Slab Decomposition



     bravais-lattice index     =            0
     lattice parameter (alat)  =       7.0647  a.u.
     unit-cell volume          =     249.3236 (a.u.)^3
     number of atoms/cell      =            1
     number of atomic types    =            1
     number of electrons       =         9.00
     number of Kohn-Sham states=            9
     kinetic-energy cutoff     =      66.0000  Ry
     charge density cutoff     =     323.0000  Ry
     scf convergence threshold =      7.3E-05
     mixing beta               =       0.7000
     number of iterations used =            8  plain     mixing
     Exchange-correlation= SLA  PW   PBX  PBC
                           (   1   4   3   4   0   0   0)

     celldm(1)=   7.064684  celldm(2)=   0.000000  celldm(3)=   0.000000
     celldm(4)=   0.000000  celldm(5)=   0.000000  celldm(6)=   0.000000

     crystal axes: (cart. coord. in units of alat)
               a(1) = (   1.000000   0.000000   0.000000 )  
               a(2) = (   0.500000   0.866025   0.000000 )  
               a(3) = (   0.500000   0.288675   0.816497 )  

     reciprocal axes: (cart. coord. in units 2 pi/alat)
               b(1) = (  1.000000 -0.577350 -0.408248 )  
               b(2) = (  0.000000  1.154701 -0.408248 )  
               b(3) = (  0.000000  0.000000  1.224745 )  


     PseudoPot. # 1 for Na read from file:
     ./../../../pseudo/psl100_PBE/Na.pbe-spnl-kjpaw_psl.1.0.0.UPF
     MD5 check sum: f2288f1d849ce3f38c85d42d9b9ce294
     Pseudo is Projector augmented-wave + core cor, Zval =  9.0
     Generated using 'atomic' code by A. Dal Corso  v.7.2
     Shape of augmentation charge: PSQ
     Using radial grid of 1121 points,  4 beta functions with: 
                l(1) =   0
                l(2) =   0
                l(3) =   1
                l(4) =   1
     Q(r) pseudized with 0 coefficients 


     atomic species   valence    mass     pseudopotential
        Na             9.00    22.98900     Na( 1.00)

     12 Sym. Ops., with inversion, found



   Cartesian axes

     site n.     atom                  positions (alat units)
         1           Na  tau(   1) = (   0.0000000   0.0000000   0.0000000  )

     number of k points=   116  Methfessel-Paxton smearing, width (Ry)=  0.0200

     Number of k-points >= 100: set verbosity='high' to print them.

     Dense  grid:    24357 G-vectors     FFT dimensions: (  45,  45,  45)

     Smooth grid:    18149 G-vectors     FFT dimensions: (  40,  40,  40)

     Estimated max dynamical RAM per process >       7.39 MB

     Estimated total dynamical RAM >      73.94 MB

     Initial potential from superposition of free atoms

     starting charge       8.9937, renormalised to       9.0000
     Starting wfcs are    5 randomized atomic wfcs +    4 random wfcs
     Checking if some PAW data can be deallocated... 

     total cpu time spent up to now is        0.6 secs

     per-process dynamical memory:    12.7 Mb

     Self-consistent Calculation

     iteration #  1     ecut=    66.00 Ry     beta= 0.70
     Davidson diagonalization with overlap
     ethr =  1.00E-02,  avg # of iterations =  5.8

     Threshold (ethr) on eigenvalues was too large:
     Diagonalizing with lowered threshold

     Davidson diagonalization with overlap
     ethr =  9.78E-06,  avg # of iterations =  5.1

     total cpu time spent up to now is        2.4 secs

     total energy              =    -109.24856635 Ry
     estimated scf accuracy    <       0.00089603 Ry

     iteration #  2     ecut=    66.00 Ry     beta= 0.70
     Davidson diagonalization with overlap
     ethr =  9.96E-06,  avg # of iterations =  2.0

     total cpu time spent up to now is        3.1 secs

     total energy              =    -109.24865986 Ry
     estimated scf accuracy    <       0.00010072 Ry

     iteration #  3     ecut=    66.00 Ry     beta= 0.70
     Davidson diagonalization with overlap
     ethr =  1.12E-06,  avg # of iterations =  2.2

     total cpu time spent up to now is        3.8 secs

     End of self-consistent calculation

     Number of k-points >= 100: set verbosity='high' to print the bands.

     the Fermi energy is     1.5135 ev

!    total energy              =    -109.24867139 Ry
     total all-electron energy =      -324.867097 Ry
     estimated scf accuracy    <       0.00000771 Ry
     smearing contrib. (-TS)   =      -0.00009700 Ry
     internal energy E=F+TS    =    -109.24857440 Ry

     The total energy is F=E-TS. E is the sum of the following terms:
     one-electron contribution =     -88.55501825 Ry
     hartree contribution      =      46.32901447 Ry
     xc contribution           =     -14.68555480 Ry
     ewald contribution        =     -37.17093876 Ry
     one-center paw contrib.   =     -15.16607705 Ry

     convergence has been achieved in   3 iterations

     Writing all to output data dir ./work/POSCAR.save/

     init_run     :      0.47s CPU      0.47s WALL (       1 calls)
     electrons    :      2.51s CPU      3.16s WALL (       1 calls)

     Called by init_run:
     wfcinit      :      0.15s CPU      0.15s WALL (       1 calls)
     potinit      :      0.20s CPU      0.20s WALL (       1 calls)
     hinit0       :      0.11s CPU      0.11s WALL (       1 calls)

     Called by electrons:
     c_bands      :      2.19s CPU      2.80s WALL (       4 calls)
     sum_band     :      0.28s CPU      0.30s WALL (       4 calls)
     v_of_rho     :      0.01s CPU      0.01s WALL (       4 calls)
     newd         :      0.01s CPU      0.01s WALL (       4 calls)
     PAW_pot      :      0.03s CPU      0.03s WALL (       4 calls)
     mix_rho      :      0.00s CPU      0.00s WALL (       4 calls)

     Called by c_bands:
     init_us_2    :      0.03s CPU      0.03s WALL (    1044 calls)
     init_us_2:cp :      0.02s CPU      0.03s WALL (    1044 calls)
     cegterg      :      2.10s CPU      2.13s WALL (     464 calls)

     Called by *egterg:
     cdiaghg      :      0.15s CPU      0.16s WALL (    2094 calls)
     h_psi        :      1.81s CPU      1.84s WALL (    2326 calls)
     s_psi        :      0.01s CPU      0.01s WALL (    2326 calls)
     g_psi        :      0.01s CPU      0.01s WALL (    1746 calls)

     Called by h_psi:
     h_psi:calbec :      0.06s CPU      0.06s WALL (    2326 calls)
     vloc_psi     :      1.73s CPU      1.76s WALL (    2326 calls)
     add_vuspsi   :      0.01s CPU      0.01s WALL (    2326 calls)

     General routines
     calbec       :      0.07s CPU      0.07s WALL (    2790 calls)
     fft          :      0.09s CPU      0.09s WALL (      51 calls)
     ffts         :      0.19s CPU      0.19s WALL (       8 calls)
     fftw         :      1.82s CPU      1.87s WALL (   30666 calls)
     interpolate  :      0.19s CPU      0.19s WALL (       4 calls)

     Parallel routines

     PWSCF        :      3.13s CPU      4.58s WALL


   This run was terminated on:  22:37: 0  10May2024            

=------------------------------------------------------------------------------=
   JOB DONE.
=------------------------------------------------------------------------------=
