
     Program PWSCF v.7.1 starts on 10May2024 at 22:37: 1 

     This program is part of the open-source Quantum ESPRESSO suite
     for quantum simulation of materials; please cite
         "P. Giannozzi et al., J. Phys.:Condens. Matter 21 395502 (2009);
         "P. Giannozzi et al., J. Phys.:Condens. Matter 29 465901 (2017);
         "P. Giannozzi et al., J. Chem. Phys. 152 154105 (2020);
          URL http://www.quantum-espresso.org", 
     in publications or presentations arising from this work. More details at
     http://www.quantum-espresso.org/quote

     Parallel version (MPI & OpenMP), running on      10 processor cores
     Number of MPI processes:                10
     Threads/MPI process:                     1

     MPI processes distributed on     1 nodes
     14899 MiB available memory on the printing compute node when the environment starts

     Waiting for input...
     Reading input from standard input

     Current dimensions of program PWSCF are:
     Max number of different atomic species (ntypx) = 10
     Max number of k-points (npk) =  40000
     Max angular momentum in pseudopotentials (lmaxx) =  4

     Atomic positions and unit cell read from directory:
     ./work/POSCAR.save/

     file Na.pbe-spnl-kjpaw_psl.1.0.0.UPF: wavefunction(s)  2P renormalized
     Message from routine setup:
     using ibrav=0 with symmetry is DISCOURAGED, use correct ibrav instead

     R & G space division:  proc/nbgrp/npool/nimage =      10
     Subspace diagonalization in iterative solution of the eigenvalue problem:
     a serial algorithm will be used


     Parallelization info
     --------------------
     sticks:   dense  smooth     PW     G-vecs:    dense   smooth      PW
     Min         111      91     26                 2435     1814     288
     Max         112      92     27                 2436     1817     290
     Sum        1111     913    265                24357    18149    2891

     Using Slab Decomposition



     bravais-lattice index     =            0
     lattice parameter (alat)  =       7.0647  a.u.
     unit-cell volume          =     249.3236 (a.u.)^3
     number of atoms/cell      =            1
     number of atomic types    =            1
     number of electrons       =         9.00
     number of Kohn-Sham states=            9
     kinetic-energy cutoff     =      66.0000  Ry
     charge density cutoff     =     323.0000  Ry
     Exchange-correlation= SLA  PW   PBX  PBC
                           (   1   4   3   4   0   0   0)

     celldm(1)=   7.064684  celldm(2)=   0.000000  celldm(3)=   0.000000
     celldm(4)=   0.000000  celldm(5)=   0.000000  celldm(6)=   0.000000

     crystal axes: (cart. coord. in units of alat)
               a(1) = (   1.000000   0.000000   0.000000 )  
               a(2) = (   0.500000   0.866025   0.000000 )  
               a(3) = (   0.500000   0.288675   0.816497 )  

     reciprocal axes: (cart. coord. in units 2 pi/alat)
               b(1) = (  1.000000 -0.577350 -0.408248 )  
               b(2) = (  0.000000  1.154701 -0.408248 )  
               b(3) = (  0.000000  0.000000  1.224745 )  


     PseudoPot. # 1 for Na read from file:
     ./../../../pseudo/psl100_PBE/Na.pbe-spnl-kjpaw_psl.1.0.0.UPF
     MD5 check sum: f2288f1d849ce3f38c85d42d9b9ce294
     Pseudo is Projector augmented-wave + core cor, Zval =  9.0
     Generated using 'atomic' code by A. Dal Corso  v.7.2
     Shape of augmentation charge: PSQ
     Using radial grid of 1121 points,  4 beta functions with: 
                l(1) =   0
                l(2) =   0
                l(3) =   1
                l(4) =   1
     Q(r) pseudized with 0 coefficients 


     atomic species   valence    mass     pseudopotential
        Na             9.00    22.98900     Na( 1.00)

     12 Sym. Ops., with inversion, found



   Cartesian axes

     site n.     atom                  positions (alat units)
         1           Na  tau(   1) = (   0.0000000   0.0000000   0.0000000  )

     number of k points=   101  Methfessel-Paxton smearing, width (Ry)=  0.0200

     Number of k-points >= 100: set verbosity='high' to print them.

     Dense  grid:    24357 G-vectors     FFT dimensions: (  45,  45,  45)

     Smooth grid:    18149 G-vectors     FFT dimensions: (  40,  40,  40)

     Estimated max dynamical RAM per process >       3.10 MB

     Estimated total dynamical RAM >      31.00 MB

     The potential is recalculated from file :
     ./work/POSCAR.save/charge-density

     Starting wfcs are    5 randomized atomic wfcs +    4 random wfcs
     Checking if some PAW data can be deallocated... 

     Band Structure Calculation
     Davidson diagonalization with overlap

     ethr =  8.11E-07,  avg # of iterations = 17.3

     total cpu time spent up to now is        2.5 secs

     End of band structure calculation

     Number of k-points >= 100: set verbosity='high' to print the bands.

     Writing all to output data dir ./work/POSCAR.save/

     init_run     :      0.31s CPU      0.34s WALL (       1 calls)
     electrons    :      1.69s CPU      1.92s WALL (       1 calls)

     Called by init_run:
     wfcinit      :      0.00s CPU      0.00s WALL (       1 calls)
     potinit      :      0.19s CPU      0.21s WALL (       1 calls)
     hinit0       :      0.10s CPU      0.10s WALL (       1 calls)

     Called by electrons:
     c_bands      :      1.69s CPU      1.92s WALL (       1 calls)
     v_of_rho     :      0.00s CPU      0.00s WALL (       1 calls)
     newd         :      0.01s CPU      0.01s WALL (       1 calls)
     PAW_pot      :      0.00s CPU      0.01s WALL (       1 calls)

     Called by c_bands:
     init_us_2    :      0.00s CPU      0.00s WALL (     101 calls)
     init_us_2:cp :      0.00s CPU      0.00s WALL (     101 calls)
     cegterg      :      1.52s CPU      1.58s WALL (     127 calls)

     Called by *egterg:
     cdiaghg      :      0.13s CPU      0.13s WALL (    1847 calls)
     h_psi        :      1.29s CPU      1.34s WALL (    1974 calls)
     s_psi        :      0.01s CPU      0.01s WALL (    1974 calls)
     g_psi        :      0.01s CPU      0.01s WALL (    1746 calls)

     Called by h_psi:
     h_psi:calbec :      0.05s CPU      0.05s WALL (    1974 calls)
     vloc_psi     :      1.22s CPU      1.28s WALL (    1974 calls)
     add_vuspsi   :      0.01s CPU      0.01s WALL (    1974 calls)

     General routines
     calbec       :      0.04s CPU      0.05s WALL (    1974 calls)
     fft          :      0.09s CPU      0.09s WALL (      13 calls)
     ffts         :      0.19s CPU      0.19s WALL (       1 calls)
     fftw         :      1.13s CPU      1.18s WALL (   18296 calls)
     interpolate  :      0.19s CPU      0.19s WALL (       1 calls)
     davcio       :      0.00s CPU      0.13s WALL (     202 calls)

     Parallel routines

     PWSCF        :      2.28s CPU      3.22s WALL


   This run was terminated on:  22:37: 4  10May2024            

=------------------------------------------------------------------------------=
   JOB DONE.
=------------------------------------------------------------------------------=
