
     Program PWSCF v.7.1 starts on 16May2024 at  8:48:40 

     This program is part of the open-source Quantum ESPRESSO suite
     for quantum simulation of materials; please cite
         "P. Giannozzi et al., J. Phys.:Condens. Matter 21 395502 (2009);
         "P. Giannozzi et al., J. Phys.:Condens. Matter 29 465901 (2017);
         "P. Giannozzi et al., J. Chem. Phys. 152 154105 (2020);
          URL http://www.quantum-espresso.org", 
     in publications or presentations arising from this work. More details at
     http://www.quantum-espresso.org/quote

     Parallel version (MPI & OpenMP), running on      10 processor cores
     Number of MPI processes:                10
     Threads/MPI process:                     1

     MPI processes distributed on     1 nodes
     14545 MiB available memory on the printing compute node when the environment starts

     Waiting for input...
     Reading input from standard input

     Current dimensions of program PWSCF are:
     Max number of different atomic species (ntypx) = 10
     Max number of k-points (npk) =  40000
     Max angular momentum in pseudopotentials (lmaxx) =  4
     file Gd.pbe-spdn-kjpaw_psl.1.0.0.UPF: wavefunction(s)  5P renormalized
     Message from routine setup:
     using ibrav=0 with symmetry is DISCOURAGED, use correct ibrav instead

     R & G space division:  proc/nbgrp/npool/nimage =      10
     Subspace diagonalization in iterative solution of the eigenvalue problem:
     a serial algorithm will be used


     Parallelization info
     --------------------
     sticks:   dense  smooth     PW     G-vecs:    dense   smooth      PW
     Min          70      43     15                 1237      597     113
     Max          71      44     16                 1240      600     114
     Sum         703     433    151                12387     5985    1139

     Using Slab Decomposition



     bravais-lattice index     =            0
     lattice parameter (alat)  =       6.7389  a.u.
     unit-cell volume          =     216.3988 (a.u.)^3
     number of atoms/cell      =            1
     number of atomic types    =            1
     number of electrons       =        11.00
     number of Kohn-Sham states=           30
     kinetic-energy cutoff     =      35.0000  Ry
     charge density cutoff     =     227.0000  Ry
     scf convergence threshold =      7.3E-05
     mixing beta               =       0.7000
     number of iterations used =            8  plain     mixing
     Exchange-correlation= SLA  PW   PBX  PBC
                           (   1   4   3   4   0   0   0)

     celldm(1)=   6.738915  celldm(2)=   0.000000  celldm(3)=   0.000000
     celldm(4)=   0.000000  celldm(5)=   0.000000  celldm(6)=   0.000000

     crystal axes: (cart. coord. in units of alat)
               a(1) = (   1.000000   0.000000   0.000000 )  
               a(2) = (   0.500000   0.866025   0.000000 )  
               a(3) = (   0.500000   0.288675   0.816497 )  

     reciprocal axes: (cart. coord. in units 2 pi/alat)
               b(1) = (  1.000000 -0.577350 -0.408248 )  
               b(2) = (  0.000000  1.154701 -0.408248 )  
               b(3) = (  0.000000  0.000000  1.224745 )  


     PseudoPot. # 1 for Gd read from file:
     ./../../../pseudo/psl100_PBE/Gd.pbe-spdn-kjpaw_psl.1.0.0.UPF
     MD5 check sum: 4de0f19c10dbc7a59f9bb232a8b075a6
     Pseudo is Projector augmented-wave + core cor, Zval = 11.0
     Generated using 'atomic' code by A. Dal Corso  v.7.2
     Shape of augmentation charge: PSQ
     Using radial grid of 1263 points,  6 beta functions with: 
                l(1) =   0
                l(2) =   0
                l(3) =   1
                l(4) =   1
                l(5) =   2
                l(6) =   2
     Q(r) pseudized with 0 coefficients 


     atomic species   valence    mass     pseudopotential
        Gd            11.00   157.25000     Gd( 1.00)

     12 Sym. Ops., with inversion, found



   Cartesian axes

     site n.     atom                  positions (alat units)
         1           Gd  tau(   1) = (   0.0000000   0.0000000   0.0000000  )

     number of k points=   146  Methfessel-Paxton smearing, width (Ry)=  0.0200

     Number of k-points >= 100: set verbosity='high' to print them.

     Dense  grid:    12387 G-vectors     FFT dimensions: (  36,  36,  36)

     Smooth grid:     5985 G-vectors     FFT dimensions: (  25,  25,  25)

     Estimated max dynamical RAM per process >      10.68 MB

     Estimated total dynamical RAM >     106.79 MB

     Initial potential from superposition of free atoms

     starting charge      10.9765, renormalised to      11.0000
     Starting wfcs are   13 randomized atomic wfcs +   17 random wfcs
     Checking if some PAW data can be deallocated... 

     total cpu time spent up to now is        0.8 secs

     per-process dynamical memory:    16.5 Mb

     Self-consistent Calculation

     iteration #  1     ecut=    35.00 Ry     beta= 0.70
     Davidson diagonalization with overlap
     ethr =  1.00E-02,  avg # of iterations =  6.9

     Threshold (ethr) on eigenvalues was too large:
     Diagonalizing with lowered threshold

     Davidson diagonalization with overlap
     ethr =  6.52E-05,  avg # of iterations =  2.5

     total cpu time spent up to now is        4.3 secs

     total energy              =    -557.02118594 Ry
     estimated scf accuracy    <       0.00722908 Ry

     iteration #  2     ecut=    35.00 Ry     beta= 0.70
     Davidson diagonalization with overlap
     ethr =  6.57E-05,  avg # of iterations =  1.1

     total cpu time spent up to now is        5.4 secs

     total energy              =    -557.02265506 Ry
     estimated scf accuracy    <       0.00015496 Ry

     iteration #  3     ecut=    35.00 Ry     beta= 0.70
     Davidson diagonalization with overlap
     ethr =  1.41E-06,  avg # of iterations =  3.9

     total cpu time spent up to now is        6.8 secs

     End of self-consistent calculation

     Number of k-points >= 100: set verbosity='high' to print the bands.

     the Fermi energy is    10.6780 ev

!    total energy              =    -557.02267843 Ry
     total all-electron energy =    -22542.582873 Ry
     estimated scf accuracy    <       0.00001170 Ry
     smearing contrib. (-TS)   =       0.00033213 Ry
     internal energy E=F+TS    =    -557.02301056 Ry

     The total energy is F=E-TS. E is the sum of the following terms:
     one-electron contribution =     -12.16848085 Ry
     hartree contribution      =      10.60933204 Ry
     xc contribution           =     -62.75719412 Ry
     ewald contribution        =     -58.21121974 Ry
     one-center paw contrib.   =    -434.49544790 Ry

     convergence has been achieved in   3 iterations

     Writing all to output data dir ./work/POSCAR.save/

     init_run     :      0.53s CPU      0.53s WALL (       1 calls)
     electrons    :      4.66s CPU      6.01s WALL (       1 calls)

     Called by init_run:
     wfcinit      :      0.24s CPU      0.24s WALL (       1 calls)
     potinit      :      0.07s CPU      0.08s WALL (       1 calls)
     hinit0       :      0.20s CPU      0.20s WALL (       1 calls)

     Called by electrons:
     c_bands      :      4.21s CPU      5.46s WALL (       4 calls)
     sum_band     :      0.34s CPU      0.38s WALL (       4 calls)
     v_of_rho     :      0.01s CPU      0.01s WALL (       4 calls)
     newd         :      0.01s CPU      0.01s WALL (       4 calls)
     PAW_pot      :      0.12s CPU      0.16s WALL (       4 calls)
     mix_rho      :      0.00s CPU      0.00s WALL (       4 calls)

     Called by c_bands:
     init_us_2    :      0.02s CPU      0.02s WALL (    1314 calls)
     init_us_2:cp :      0.02s CPU      0.02s WALL (    1314 calls)
     cegterg      :      4.12s CPU      4.33s WALL (     584 calls)

     Called by *egterg:
     cdiaghg      :      1.55s CPU      1.63s WALL (    2551 calls)
     h_psi        :      2.23s CPU      2.33s WALL (    2843 calls)
     s_psi        :      0.03s CPU      0.03s WALL (    2843 calls)
     g_psi        :      0.02s CPU      0.02s WALL (    2113 calls)

     Called by h_psi:
     h_psi:calbec :      0.09s CPU      0.10s WALL (    2843 calls)
     vloc_psi     :      2.10s CPU      2.20s WALL (    2843 calls)
     add_vuspsi   :      0.03s CPU      0.03s WALL (    2843 calls)

     General routines
     calbec       :      0.11s CPU      0.12s WALL (    3427 calls)
     fft          :      0.18s CPU      0.18s WALL (      51 calls)
     ffts         :      0.03s CPU      0.03s WALL (       8 calls)
     fftw         :      2.17s CPU      2.29s WALL (  119342 calls)
     interpolate  :      0.03s CPU      0.04s WALL (       4 calls)

     Parallel routines

     PWSCF        :      5.45s CPU      7.77s WALL


   This run was terminated on:   8:48:48  16May2024            

=------------------------------------------------------------------------------=
   JOB DONE.
=------------------------------------------------------------------------------=
