
     Program PWSCF v.7.1 starts on 15May2024 at 22:40:17 

     This program is part of the open-source Quantum ESPRESSO suite
     for quantum simulation of materials; please cite
         "P. Giannozzi et al., J. Phys.:Condens. Matter 21 395502 (2009);
         "P. Giannozzi et al., J. Phys.:Condens. Matter 29 465901 (2017);
         "P. Giannozzi et al., J. Chem. Phys. 152 154105 (2020);
          URL http://www.quantum-espresso.org", 
     in publications or presentations arising from this work. More details at
     http://www.quantum-espresso.org/quote

     Parallel version (MPI & OpenMP), running on      10 processor cores
     Number of MPI processes:                10
     Threads/MPI process:                     1

     MPI processes distributed on     1 nodes
     14554 MiB available memory on the printing compute node when the environment starts

     Waiting for input...
     Reading input from standard input

     Current dimensions of program PWSCF are:
     Max number of different atomic species (ntypx) = 10
     Max number of k-points (npk) =  40000
     Max angular momentum in pseudopotentials (lmaxx) =  4

     Atomic positions and unit cell read from directory:
     ./work/POSCAR.save/

     file Ce.pbe-spdn-kjpaw_psl.1.0.0.UPF: wavefunction(s)  5D renormalized
     Message from routine setup:
     using ibrav=0 with symmetry is DISCOURAGED, use correct ibrav instead

     R & G space division:  proc/nbgrp/npool/nimage =      10
     Subspace diagonalization in iterative solution of the eigenvalue problem:
     a serial algorithm will be used


     Parallelization info
     --------------------
     sticks:   dense  smooth     PW     G-vecs:    dense   smooth      PW
     Min          55      46     14                  993      748     136
     Max          57      47     15                  996      751     137
     Sum         561     465    145                 9939     7497    1365

     Using Slab Decomposition



     bravais-lattice index     =            0
     lattice parameter (alat)  =       6.2818  a.u.
     unit-cell volume          =     247.8894 (a.u.)^3
     number of atoms/cell      =            1
     number of atomic types    =            1
     number of electrons       =        11.00
     number of Kohn-Sham states=           26
     kinetic-energy cutoff     =      37.0000  Ry
     charge density cutoff     =     179.0000  Ry
     Exchange-correlation= SLA  PW   PBX  PBC
                           (   1   4   3   4   0   0   0)

     celldm(1)=   6.281828  celldm(2)=   0.000000  celldm(3)=   0.000000
     celldm(4)=   0.000000  celldm(5)=   0.000000  celldm(6)=   0.000000

     crystal axes: (cart. coord. in units of alat)
               a(1) = (   1.000000   0.000000   0.000000 )  
               a(2) = (   0.000000   1.000000   0.000000 )  
               a(3) = (   0.000000   0.000000   1.000000 )  

     reciprocal axes: (cart. coord. in units 2 pi/alat)
               b(1) = (  1.000000  0.000000  0.000000 )  
               b(2) = (  0.000000  1.000000  0.000000 )  
               b(3) = (  0.000000  0.000000  1.000000 )  


     PseudoPot. # 1 for Ce read from file:
     ./../../../../pseudo/psl100_PBE/Ce.pbe-spdn-kjpaw_psl.1.0.0.UPF
     MD5 check sum: 1a25380276e46fcecd5a173acdad072c
     Pseudo is Projector augmented-wave + core cor, Zval = 11.0
     Generated using 'atomic' code by A. Dal Corso  v.7.2
     Shape of augmentation charge: PSQ
     Using radial grid of 1255 points,  6 beta functions with: 
                l(1) =   0
                l(2) =   0
                l(3) =   1
                l(4) =   1
                l(5) =   2
                l(6) =   2
     Q(r) pseudized with 0 coefficients 


     atomic species   valence    mass     pseudopotential
        Ce            11.00   140.11600     Ce( 1.00)

     48 Sym. Ops., with inversion, found



   Cartesian axes

     site n.     atom                  positions (alat units)
         1           Ce  tau(   1) = (   0.0000000   0.0000000   0.0000000  )

     number of k points=    91  Methfessel-Paxton smearing, width (Ry)=  0.0200
                       cart. coord. in units 2pi/alat
        k(    1) = (   0.0000000   0.5000000   0.5000000), wk =   0.0219780
        k(    2) = (   0.0500000   0.5000000   0.5000000), wk =   0.0219780
        k(    3) = (   0.1000000   0.5000000   0.5000000), wk =   0.0219780
        k(    4) = (   0.1500000   0.5000000   0.5000000), wk =   0.0219780
        k(    5) = (   0.2000000   0.5000000   0.5000000), wk =   0.0219780
        k(    6) = (   0.2500000   0.5000000   0.5000000), wk =   0.0219780
        k(    7) = (   0.3000000   0.5000000   0.5000000), wk =   0.0219780
        k(    8) = (   0.3500000   0.5000000   0.5000000), wk =   0.0219780
        k(    9) = (   0.4000000   0.5000000   0.5000000), wk =   0.0219780
        k(   10) = (   0.4500000   0.5000000   0.5000000), wk =   0.0219780
        k(   11) = (   0.5000000   0.5000000   0.5000000), wk =   0.0219780
        k(   12) = (   0.4750000   0.4750000   0.4750000), wk =   0.0219780
        k(   13) = (   0.4500000   0.4500000   0.4500000), wk =   0.0219780
        k(   14) = (   0.4250000   0.4250000   0.4250000), wk =   0.0219780
        k(   15) = (   0.4000000   0.4000000   0.4000000), wk =   0.0219780
        k(   16) = (   0.3750000   0.3750000   0.3750000), wk =   0.0219780
        k(   17) = (   0.3500000   0.3500000   0.3500000), wk =   0.0219780
        k(   18) = (   0.3250000   0.3250000   0.3250000), wk =   0.0219780
        k(   19) = (   0.3000000   0.3000000   0.3000000), wk =   0.0219780
        k(   20) = (   0.2750000   0.2750000   0.2750000), wk =   0.0219780
        k(   21) = (   0.2500000   0.2500000   0.2500000), wk =   0.0219780
        k(   22) = (   0.2250000   0.2250000   0.2250000), wk =   0.0219780
        k(   23) = (   0.2000000   0.2000000   0.2000000), wk =   0.0219780
        k(   24) = (   0.1750000   0.1750000   0.1750000), wk =   0.0219780
        k(   25) = (   0.1500000   0.1500000   0.1500000), wk =   0.0219780
        k(   26) = (   0.1250000   0.1250000   0.1250000), wk =   0.0219780
        k(   27) = (   0.1000000   0.1000000   0.1000000), wk =   0.0219780
        k(   28) = (   0.0750000   0.0750000   0.0750000), wk =   0.0219780
        k(   29) = (   0.0500000   0.0500000   0.0500000), wk =   0.0219780
        k(   30) = (   0.0250000   0.0250000   0.0250000), wk =   0.0219780
        k(   31) = (   0.0000000   0.0000000   0.0000000), wk =   0.0219780
        k(   32) = (   0.0500000   0.0000000   0.0000000), wk =   0.0219780
        k(   33) = (   0.1000000   0.0000000   0.0000000), wk =   0.0219780
        k(   34) = (   0.1500000   0.0000000   0.0000000), wk =   0.0219780
        k(   35) = (   0.2000000   0.0000000   0.0000000), wk =   0.0219780
        k(   36) = (   0.2500000   0.0000000   0.0000000), wk =   0.0219780
        k(   37) = (   0.3000000   0.0000000   0.0000000), wk =   0.0219780
        k(   38) = (   0.3500000   0.0000000   0.0000000), wk =   0.0219780
        k(   39) = (   0.4000000   0.0000000   0.0000000), wk =   0.0219780
        k(   40) = (   0.4500000   0.0000000   0.0000000), wk =   0.0219780
        k(   41) = (   0.5000000   0.0000000   0.0000000), wk =   0.0219780
        k(   42) = (   0.5000000   0.0500000   0.0000000), wk =   0.0219780
        k(   43) = (   0.5000000   0.1000000   0.0000000), wk =   0.0219780
        k(   44) = (   0.5000000   0.1500000   0.0000000), wk =   0.0219780
        k(   45) = (   0.5000000   0.2000000   0.0000000), wk =   0.0219780
        k(   46) = (   0.5000000   0.2500000   0.0000000), wk =   0.0219780
        k(   47) = (   0.5000000   0.3000000   0.0000000), wk =   0.0219780
        k(   48) = (   0.5000000   0.3500000   0.0000000), wk =   0.0219780
        k(   49) = (   0.5000000   0.4000000   0.0000000), wk =   0.0219780
        k(   50) = (   0.5000000   0.4500000   0.0000000), wk =   0.0219780
        k(   51) = (   0.5000000   0.5000000   0.0000000), wk =   0.0219780
        k(   52) = (   0.4750000   0.4750000   0.0000000), wk =   0.0219780
        k(   53) = (   0.4500000   0.4500000   0.0000000), wk =   0.0219780
        k(   54) = (   0.4250000   0.4250000   0.0000000), wk =   0.0219780
        k(   55) = (   0.4000000   0.4000000   0.0000000), wk =   0.0219780
        k(   56) = (   0.3750000   0.3750000   0.0000000), wk =   0.0219780
        k(   57) = (   0.3500000   0.3500000   0.0000000), wk =   0.0219780
        k(   58) = (   0.3250000   0.3250000   0.0000000), wk =   0.0219780
        k(   59) = (   0.3000000   0.3000000   0.0000000), wk =   0.0219780
        k(   60) = (   0.2750000   0.2750000   0.0000000), wk =   0.0219780
        k(   61) = (   0.2500000   0.2500000   0.0000000), wk =   0.0219780
        k(   62) = (   0.2250000   0.2250000   0.0000000), wk =   0.0219780
        k(   63) = (   0.2000000   0.2000000   0.0000000), wk =   0.0219780
        k(   64) = (   0.1750000   0.1750000   0.0000000), wk =   0.0219780
        k(   65) = (   0.1500000   0.1500000   0.0000000), wk =   0.0219780
        k(   66) = (   0.1250000   0.1250000   0.0000000), wk =   0.0219780
        k(   67) = (   0.1000000   0.1000000   0.0000000), wk =   0.0219780
        k(   68) = (   0.0750000   0.0750000   0.0000000), wk =   0.0219780
        k(   69) = (   0.0500000   0.0500000   0.0000000), wk =   0.0219780
        k(   70) = (   0.0250000   0.0250000   0.0000000), wk =   0.0219780
        k(   71) = (   0.0000000   0.0000000   0.0000000), wk =   0.0219780
        k(   72) = (   0.0250000   0.0250000   0.0250000), wk =   0.0219780
        k(   73) = (   0.0500000   0.0500000   0.0500000), wk =   0.0219780
        k(   74) = (   0.0750000   0.0750000   0.0750000), wk =   0.0219780
        k(   75) = (   0.1000000   0.1000000   0.1000000), wk =   0.0219780
        k(   76) = (   0.1250000   0.1250000   0.1250000), wk =   0.0219780
        k(   77) = (   0.1500000   0.1500000   0.1500000), wk =   0.0219780
        k(   78) = (   0.1750000   0.1750000   0.1750000), wk =   0.0219780
        k(   79) = (   0.2000000   0.2000000   0.2000000), wk =   0.0219780
        k(   80) = (   0.2250000   0.2250000   0.2250000), wk =   0.0219780
        k(   81) = (   0.2500000   0.2500000   0.2500000), wk =   0.0219780
        k(   82) = (   0.2750000   0.2750000   0.2750000), wk =   0.0219780
        k(   83) = (   0.3000000   0.3000000   0.3000000), wk =   0.0219780
        k(   84) = (   0.3250000   0.3250000   0.3250000), wk =   0.0219780
        k(   85) = (   0.3500000   0.3500000   0.3500000), wk =   0.0219780
        k(   86) = (   0.3750000   0.3750000   0.3750000), wk =   0.0219780
        k(   87) = (   0.4000000   0.4000000   0.4000000), wk =   0.0219780
        k(   88) = (   0.4250000   0.4250000   0.4250000), wk =   0.0219780
        k(   89) = (   0.4500000   0.4500000   0.4500000), wk =   0.0219780
        k(   90) = (   0.4750000   0.4750000   0.4750000), wk =   0.0219780
        k(   91) = (   0.5000000   0.5000000   0.5000000), wk =   0.0219780

     Dense  grid:     9939 G-vectors     FFT dimensions: (  27,  27,  27)

     Smooth grid:     7497 G-vectors     FFT dimensions: (  25,  25,  25)

     Estimated max dynamical RAM per process >       4.26 MB

     Estimated total dynamical RAM >      42.64 MB

     The potential is recalculated from file :
     ./work/POSCAR.save/charge-density

     Starting wfcs are   13 randomized atomic wfcs +   13 random wfcs
     Checking if some PAW data can be deallocated... 

     Band Structure Calculation
     Davidson diagonalization with overlap

     ethr =  6.64E-07,  avg # of iterations = 18.3

     total cpu time spent up to now is        3.4 secs

     End of band structure calculation

          k = 0.0000 0.5000 0.5000 (   952 PWs)   bands (ev):

   -23.9223  -7.6323  -7.6323  -5.9271   8.3386  11.0823  14.2047  14.2047
    15.8973  15.8973  19.1539  21.9698  23.0760  23.0760  23.1215  24.2023
    29.1390  31.4961  31.4961  35.4431  35.8342  35.8978  36.3125  36.3125
    41.1342  41.1342

          k = 0.0500 0.5000 0.5000 (   948 PWs)   bands (ev):

   -23.9180  -7.6270  -7.6270  -5.9682   8.3622  11.2061  13.8130  13.8130
    16.3216  16.3216  19.1608  21.3265  23.1335  23.1335  23.7563  24.2040
    29.2299  31.5131  31.5131  35.3319  35.7110  35.9254  36.0630  36.0630
    41.3448  41.4539

          k = 0.1000 0.5000 0.5000 (   952 PWs)   bands (ev):

   -23.9057  -7.6113  -7.6113  -6.0858   8.4319  11.5713  13.0987  13.0987
    17.1269  17.1269  19.1808  20.3459  23.3104  23.3104  24.2055  24.6932
    29.5191  31.5631  31.5631  35.0224  35.3815  35.4620  35.4620  36.0078
    40.0875  40.8002

          k = 0.1500 0.5000 0.5000 (   944 PWs)   bands (ev):

   -23.8864  -7.5866  -7.5866  -6.2639   8.5454  12.1608  12.3666  12.3666
    17.9876  17.9876  19.2123  19.3697  23.6198  23.6198  24.1952  25.5449
    30.0475  31.6432  31.6432  34.5732  34.7304  34.7304  34.9308  36.1429
    38.0602  40.1473

          k = 0.2000 0.5000 0.5000 (   952 PWs)   bands (ev):

   -23.8620  -7.5553  -7.5553  -6.4805   8.6977  11.6874  11.6874  12.9500
    18.4469  18.8016  18.8016  19.2524  24.0782  24.0782  24.1504  26.2245
    30.8425  31.7474  31.7474  33.9976  33.9976  34.0488  34.4373  36.1099
    36.3268  39.5079

          k = 0.2500 0.5000 0.5000 (   944 PWs)   bands (ev):

   -23.8346  -7.5202  -7.5202  -6.7114   8.8814  11.0870  11.0870  13.9099
    17.5999  19.2977  19.5118  19.5118  24.0327  24.6915  24.6915  26.7233
    31.8661  31.8661  31.8693  33.3358  33.3358  33.5045  33.9578  34.3087
    36.5529  38.9585

          k = 0.3000 0.5000 0.5000 (   944 PWs)   bands (ev):

   -23.8070  -7.4846  -7.4846  -6.9336   9.0842  10.5797  10.5797  15.0093
    16.8480  19.3438  20.0869  20.0869  23.7830  25.4334  25.4334  27.0792
    31.9775  31.9775  32.7197  32.8051  32.8051  32.9964  33.0236  33.5284
    36.8099  38.5771

          k = 0.3500 0.5000 0.5000 (   948 PWs)   bands (ev):

   -23.7819  -7.4523  -7.4523  -7.1274   9.2884  10.1754  10.1754  16.2133
    16.2135  19.3861  20.5212  20.5212  23.3275  26.2291  26.2291  27.3324
    31.4532  32.0124  32.0124  32.5071  32.5071  32.5370  33.1736  34.1332
    37.0791  38.4963

          k = 0.4000 0.5000 0.5000 (   948 PWs)   bands (ev):

   -23.7618  -7.4263  -7.4263  -7.2771   9.4693   9.8814   9.8814  15.7238
    17.4760  19.4202  20.8229  20.8229  22.6165  26.9546  26.9546  27.5061
    30.5593  31.9249  31.9249  32.1789  32.5105  32.5105  32.9096  34.9490
    37.3293  38.9320

          k = 0.4500 0.5000 0.5000 (   948 PWs)   bands (ev):

   -23.7488  -7.4095  -7.4095  -7.3714   9.5966   9.7028   9.7028  15.4105
    18.7063  19.4424  21.0009  21.0009  21.7034  27.4628  27.4628  27.6093
    30.0518  31.8727  31.8727  31.9484  32.6262  32.6262  32.7471  35.3368
    37.5147  37.9775

          k = 0.5000 0.5000 0.5000 (   968 PWs)   bands (ev):

   -23.7444  -7.4037  -7.4037  -7.4037   9.6429   9.6429   9.6429  15.3022
    19.4500  19.4500  21.0598  21.0598  21.0598  27.6437  27.6437  27.6437
    29.8909  31.8683  31.8683  31.8683  32.6919  32.6919  32.6919  35.4328
    37.5846  37.5846

          k = 0.4750 0.4750 0.4750 (   955 PWs)   bands (ev):

   -23.7477  -7.3993  -7.3981  -7.3981   9.6392   9.6721   9.6721  15.3839
    19.1176  19.1176  20.8944  21.3924  21.3924  27.5375  27.5515  27.5515
    30.0079  31.7821  31.7821  32.0609  32.5362  32.7557  32.7557  35.3708
    37.7578  37.7578

          k = 0.4500 0.4500 0.4500 (   940 PWs)   bands (ev):

   -23.7578  -7.3864  -7.3813  -7.3813   9.6315   9.7595   9.7595  15.6243
    18.4644  18.4644  20.4350  22.0410  22.0410  27.2541  27.3102  27.3102
    30.3370  31.4468  31.4468  32.1295  32.5805  33.0413  33.0413  35.2189
    38.2091  38.2091

          k = 0.4250 0.4250 0.4250 (   940 PWs)   bands (ev):

   -23.7743  -7.3648  -7.3535  -7.3535   9.6286   9.9040   9.9040  16.0113
    17.7406  17.7406  19.7641  22.7371  22.7371  26.8655  26.9990  26.9990
    30.8183  30.9055  30.9055  31.5818  33.2820  33.5336  33.5336  35.0827
    38.6072  38.6072

          k = 0.4000 0.4000 0.4000 (   952 PWs)   bands (ev):

   -23.7969  -7.3345  -7.3151  -7.3151   9.6408  10.1042  10.1042  16.5279
    17.0069  17.0069  18.9661  23.3754  23.3754  26.4317  26.7114  26.7114
    30.2737  30.2737  30.9738  31.3898  33.8510  34.1229  34.1229  35.2488
    38.3311  38.3311

          k = 0.3750 0.3750 0.3750 (   946 PWs)   bands (ev):

   -23.8249  -7.2949  -7.2663  -7.2663   9.6763  10.3575  10.3575  16.2836
    16.2836  17.1542  18.1081  23.8432  23.8432  25.9914  26.5572  26.5572
    29.6393  29.6393  30.3510  32.0105  33.9355  34.6979  34.6979  36.0457
    38.0697  38.0697

          k = 0.3500 0.3500 0.3500 (   949 PWs)   bands (ev):

   -23.8578  -7.2463  -7.2077  -7.2077   9.7386  10.6599  10.6599  15.5819
    15.5819  17.2283  17.8812  24.0187  24.0187  25.5706  26.6109  26.6109
    29.1019  29.1019  29.7380  32.6570  33.8037  35.1290  35.1290  37.1763
    38.0917  38.0917

          k = 0.3250 0.3250 0.3250 (   949 PWs)   bands (ev):

   -23.8946  -7.1885  -7.1401  -7.1401   9.8237  11.0044  11.0044  14.9119
    14.9119  16.3868  18.6643  23.9125  23.9125  25.1938  26.7041  26.7041
    28.8528  28.8528  29.1484  33.3085  33.6498  35.3329  35.3329  38.4050
    38.4452  38.4452

          k = 0.3000 0.3000 0.3000 (   943 PWs)   bands (ev):

   -23.9345  -7.1217  -7.0644  -7.0644   9.9182  11.3772  11.3772  14.2888
    14.2888  15.6080  19.4833  23.6515  23.6515  24.8932  26.5233  26.5233
    28.5904  29.1001  29.1001  33.4787  33.9823  35.3684  35.3684  38.9410
    38.9410  39.4835

          k = 0.2750 0.2750 0.2750 (   949 PWs)   bands (ev):

   -23.9765  -7.0463  -6.9820  -6.9820   9.9948  11.7428  11.7428  13.7482
    13.7482  14.9379  20.2782  23.3312  23.3312  24.7233  26.1088  26.1088
    28.0689  29.7203  29.7203  33.3381  34.5893  35.3416  35.3416  39.0066
    39.0066  39.1169

          k = 0.2500 0.2500 0.2500 (   946 PWs)   bands (ev):

   -24.0195  -6.9630  -6.8944  -6.8944  10.0104  11.9877  11.9877  13.4021
    13.4021  14.4311  20.9501  22.9978  22.9978  24.7795  25.6317  25.6317
    27.5873  30.4996  30.4996  33.1620  35.0472  35.3109  35.3109  38.0624
    38.1984  38.1984

          k = 0.2250 0.2250 0.2250 (   934 PWs)   bands (ev):

   -24.0626  -6.8733  -6.8034  -6.8034   9.9165  11.9008  11.9008  13.4592
    13.4592  14.1430  21.3809  22.6722  22.6722  25.1743  25.1743  25.1757
    27.1477  31.3178  31.3178  32.8498  35.0949  35.2792  35.2792  37.1053
    37.1053  37.5722

          k = 0.2000 0.2000 0.2000 (   946 PWs)   bands (ev):

   -24.1046  -6.7789  -6.7113  -6.7113   9.6909  11.5563  11.5563  13.8401
    13.8401  14.0996  21.5441  22.3646  22.3646  24.7735  24.7735  25.9320
    26.7518  32.0414  32.0414  32.2302  34.8113  35.1536  35.1536  36.2384
    36.2384  37.8207

          k = 0.1750 0.1750 0.1750 (   943 PWs)   bands (ev):

   -24.1445  -6.6823  -6.6204  -6.6204   9.3596  11.1536  11.1536  14.2757
    14.3385  14.3385  21.5312  22.0801  22.0801  24.4521  24.4521  26.4006
    26.9475  31.2745  32.3179  32.3179  34.6595  34.9678  34.9678  35.9867
    35.9867  38.3896

          k = 0.1500 0.1500 0.1500 (   943 PWs)   bands (ev):

   -24.1813  -6.5866  -6.5334  -6.5334   8.9762  10.7663  10.7663  14.6140
    14.8696  14.8696  21.4381  21.8219  21.8219  24.2280  24.2280  26.0950
    28.1042  30.1643  31.7725  31.7725  34.7044  35.3594  35.3594  36.1103
    36.1103  39.0427

          k = 0.1250 0.1250 0.1250 (   943 PWs)   bands (ev):

   -24.2141  -6.4955  -6.4532  -6.4532   8.5908  10.4193  10.4193  15.0560
    15.3933  15.3933  21.3214  21.5925  21.5925  24.1180  24.1180  25.8356
    28.8804  29.4868  30.7958  30.7958  34.8907  36.0832  36.0832  36.4747
    36.4747  39.6868

          k = 0.1000 0.1000 0.1000 (   949 PWs)   bands (ev):

   -24.2422  -6.4129  -6.3827  -6.3827   8.2393  10.1245  10.1245  15.5493
    15.8782  15.8782  21.2103  21.3951  21.3951  24.1372  24.1372  25.6228
    27.8932  29.7300  29.7300  30.6322  35.2058  36.5546  36.5546  37.3281
    37.3281  40.2305

          k = 0.0750 0.0750 0.0750 (   943 PWs)   bands (ev):

   -24.2647  -6.3430  -6.3244  -6.3244   7.9457   9.8889   9.8889  16.0415
    16.2945  16.2945  21.1200  21.2339  21.2339  24.2967  24.2967  25.4570
    26.9469  28.6901  28.6901  31.7540  35.6877  36.9613  36.9613  38.3616
    38.3616  40.4630

          k = 0.0500 0.0500 0.0500 (   934 PWs)   bands (ev):

   -24.2812  -6.2897  -6.2809  -6.2809   7.7260   9.7172   9.7172  16.4729
    16.6143  16.6143  21.0577  21.1137  21.1137  24.5949  24.5949  25.3384
    26.1814  27.7335  27.7335  32.6342  36.4087  37.4043  37.4043  39.2860
    39.2860  40.1987

          k = 0.0250 0.0250 0.0250 (   937 PWs)   bands (ev):

   -24.2913  -6.2563  -6.2540  -6.2540   7.5902   9.6129   9.6129  16.7747
    16.8155  16.8155  21.0239  21.0391  21.0391  24.9889  24.9889  25.2671
    25.6737  26.9339  26.9339  33.1615  37.3699  37.8638  37.8638  39.2605
    39.2605  39.6012

          k = 0.0000 0.0000 0.0000 (   925 PWs)   bands (ev):

   -24.2947  -6.2449  -6.2449  -6.2449   7.5444   9.5780   9.5780  16.8842
    16.8842  16.8842  21.0139  21.0139  21.0139  25.2434  25.2434  25.2434
    25.4941  26.5426  26.5426  33.3308  38.1485  38.1485  38.1485  38.9754
    38.9754  38.9754

          k = 0.0500 0.0000 0.0000 (   933 PWs)   bands (ev):

   -24.2902  -6.2918  -6.2410  -6.2410   7.6045   9.5943   9.6552  16.7216
    16.7216  16.8933  20.7615  21.1804  21.1804  24.5694  25.3414  25.3414
    25.7011  26.6888  27.2904  33.1216  37.3265  37.3265  38.4377  38.5210
    39.8094  39.8094

          k = 0.1000 0.0000 0.0000 (   936 PWs)   bands (ev):

   -24.2771  -6.4255  -6.2296  -6.2296   7.7713   9.6426   9.8885  16.3124
    16.3124  16.9200  20.1641  21.5919  21.5919  23.5687  25.6425  25.6425
    26.0207  27.2676  28.5129  32.6089  36.2562  36.2562  37.3898  38.3673
    39.1909  40.8198

          k = 0.1500 0.0000 0.0000 (   936 PWs)   bands (ev):

   -24.2567  -6.6267  -6.2118  -6.2118   8.0123   9.7198  10.2748  15.7920
    15.7920  16.9623  19.4614  22.0923  22.0923  22.6039  26.1585  26.1585
    26.2143  28.2710  29.8483  31.9738  35.2504  35.2504  35.6523  37.1510
    40.2279  41.4408

          k = 0.2000 0.0000 0.0000 (   936 PWs)   bands (ev):

   -24.2307  -6.8695  -6.1892  -6.1892   8.2949   9.8210  10.7869  15.2544
    15.2544  17.0165  18.8074  21.7188  22.5771  22.5771  26.3406  26.8806
    26.8806  29.4607  31.2538  31.3278  33.7530  34.3523  34.3523  36.2407
    41.4379  41.7012

          k = 0.2500 0.0000 0.0000 (   932 PWs)   bands (ev):

   -24.2016  -7.1264  -6.1640  -6.1640   8.5985   9.9389  11.3552  14.7520
    14.7520  17.0782  18.3159  20.9310  23.0064  23.0064  26.3881  27.7545
    27.7545  30.6288  30.7282  31.9819  32.7127  33.6095  33.6095  35.5719
    41.8185  41.8185

          k = 0.3000 0.0000 0.0000 (   940 PWs)   bands (ev):

   -24.1722  -7.3720  -6.1386  -6.1386   8.9113  10.0637  11.8656  14.3144
    14.3144  17.1414  18.1056  20.2548  23.3760  23.3760  26.2268  28.6601
    28.6601  30.2062  30.3794  31.6523  33.1150  33.1150  34.2101  35.3655
    41.8385  41.8385

          k = 0.3500 0.0000 0.0000 (   940 PWs)   bands (ev):

   -24.1455  -7.5851  -6.1154  -6.1154   9.2202  10.1829  12.1955  13.9597
    13.9597  17.1999  18.2890  19.7049  23.6870  23.6870  25.6084  29.3803
    29.3803  29.4629  29.7818  31.9306  33.0568  33.0568  35.7251  35.9685
    41.4991  41.4991

          k = 0.4000 0.0000 0.0000 (   932 PWs)   bands (ev):

   -24.1240  -7.7488  -6.0970  -6.0970   9.5006  10.2827  12.3063  13.6992
    13.6992  17.2475  18.8867  19.2967  23.9316  23.9316  24.4977  29.1443
    29.4690  29.7080  29.7080  31.7478  33.6080  33.6080  37.2221  37.2507
    40.1833  40.1833

          k = 0.4500 0.0000 0.0000 (   936 PWs)   bands (ev):

   -24.1102  -7.8518  -6.0851  -6.0851   9.7086  10.3494  12.2847  13.5402
    13.5402  17.2785  19.0445  19.7469  23.2565  24.0918  24.0918  29.1334
    29.2773  29.7515  29.7515  31.4841  34.5623  34.5623  38.6249  38.7163
    38.7163  38.8488

          k = 0.5000 0.0000 0.0000 (   916 PWs)   bands (ev):

   -24.1054  -7.8868  -6.0809  -6.0809   9.7878  10.3730  12.2578  13.4868
    13.4868  17.2894  18.9591  20.3139  22.5557  24.1481  24.1481  29.1627
    29.2129  29.7387  29.7387  31.3686  35.1840  35.1840  37.9379  37.9379
    39.5301  40.3833

          k = 0.5000 0.0500 0.0000 (   934 PWs)   bands (ev):

   -24.1011  -7.8809  -6.1247  -6.0772   9.8595  10.4408  11.9852  13.5018
    13.6933  17.1623  19.1089  20.2936  22.5739  23.9557  24.3623  28.4133
    29.1750  29.4639  30.5706  31.9864  35.0230  35.1951  37.5257  37.9888
    38.9068  40.4585

          k = 0.5000 0.1000 0.0000 (   926 PWs)   bands (ev):

   -24.0884  -7.8635  -6.2493  -6.0665  10.0224  10.6879  11.4355  13.5461
    14.0613  16.8261  19.5353  20.2246  22.6262  23.5050  24.9603  27.4506
    28.2654  30.2462  31.6243  33.0248  34.6044  35.2277  36.7990  37.4279
    38.1453  40.5235

          k = 0.5000 0.1500 0.0000 (   936 PWs)   bands (ev):

   -24.0686  -7.8362  -6.4378  -6.0498  10.1893  10.8268  11.1761  13.6167
    14.4156  16.3730  20.0845  20.1726  22.7047  23.0085  25.8499  26.5432
    27.4138  31.2994  32.6611  33.8702  34.0459  35.2790  35.6661  36.3521
    38.4192  40.6204

          k = 0.5000 0.2000 0.0000 (   940 PWs)   bands (ev):

   -24.0434  -7.8015  -6.6661  -6.0286  10.2334  10.3476  11.8793  13.7091
    14.7339  15.8846  19.8522  20.9210  22.6101  22.7881  25.7121  26.7412
    26.9500  32.2634  33.5197  33.6273  33.9167  34.0118  35.3454  36.8148
    38.8259  40.7307

          k = 0.5000 0.2500 0.0000 (   944 PWs)   bands (ev):

   -24.0153  -7.7624  -6.9088  -6.0050   9.6913  10.5091  12.7322  13.8161
    15.0237  15.4159  19.5413  21.6530  22.3683  22.8245  24.9719  26.3864
    28.2059  31.3739  33.0592  33.4036  34.2879  34.4714  35.4210  37.9338
    39.3699  40.7633

          k = 0.5000 0.3000 0.0000 (   944 PWs)   bands (ev):

   -23.9868  -7.7228  -7.1417  -5.9811   9.2229  10.6732  13.6615  13.9287
    15.0009  15.2897  19.2188  22.2413  22.2745  22.7361  24.3365  26.5083
    29.5832  29.6285  32.5028  32.8126  35.1565  35.4990  35.7145  39.1592
    40.0163  40.2720

          k = 0.5000 0.3500 0.0000 (   948 PWs)   bands (ev):

   -23.9610  -7.6867  -7.3443  -5.9594   8.8441  10.8293  14.0357  14.5685
    14.6611  15.5271  18.9835  22.3023  22.4993  22.6528  23.8201  27.1100
    27.8823  31.0584  32.0724  32.2864  35.5717  35.6730  37.2569  38.9413
    40.1747  40.6658

          k = 0.5000 0.4000 0.0000 (   940 PWs)   bands (ev):

   -23.9402  -7.6576  -7.5005  -5.9421   8.5658  10.9612  14.1246  14.4101
    15.3121  15.7213  18.9310  22.2422  22.4517  22.8941  23.4374  26.2682
    27.9733  31.7563  31.8733  32.6124  35.6318  36.0311  37.4868  38.8293
    39.3825  40.7756

          k = 0.5000 0.4500 0.0000 (   950 PWs)   bands (ev):

   -23.9269  -7.6389  -7.5988  -5.9309   8.3958  11.0505  14.1838  14.2564
    15.7595  15.8512  19.0575  22.0430  22.7616  23.0314  23.2013  24.9107
    28.7832  31.5618  31.5988  34.2170  35.6761  36.2424  36.3500  37.7123
    40.3085  41.0530

          k = 0.5000 0.5000 0.0000 (   952 PWs)   bands (ev):

   -23.9223  -7.6323  -7.6323  -5.9271   8.3386  11.0823  14.2047  14.2047
    15.8973  15.8973  19.1539  21.9698  23.0760  23.0760  23.1215  24.2023
    29.1390  31.4961  31.4961  35.4431  35.8342  35.8978  36.3125  36.3125
    41.1342  41.1342

          k = 0.4750 0.4750 0.0000 (   952 PWs)   bands (ev):

   -23.9246  -7.6261  -7.6250  -5.9290   8.3672  11.0662  14.2085  14.2163
    15.8513  15.8534  19.0997  22.0040  22.7585  23.1615  23.2091  24.5678
    28.9670  31.3110  31.7573  34.8371  35.2843  36.1265  36.8652  36.8879
    40.8271  40.9108

          k = 0.4500 0.4500 0.0000 (   942 PWs)   bands (ev):

   -23.9315  -7.6074  -7.6031  -5.9348   8.4522  11.0187  14.2204  14.2510
    15.7109  15.7236  18.9711  21.9971  22.3400  23.2807  23.5762  25.2286
    28.6098  30.8448  32.3904  33.9283  34.5561  36.7219  37.6003  37.6878
    40.1629  40.3317

          k = 0.4250 0.4250 0.0000 (   940 PWs)   bands (ev):

   -23.9428  -7.5764  -7.5669  -5.9443   8.5910  10.9421  14.2418  14.3087
    15.4731  15.5132  18.8354  21.5797  22.4161  23.4764  24.1107  25.9156
    28.2810  30.2447  32.9915  33.2156  33.8236  37.5263  38.3374  38.3767
    39.3873  39.5507

          k = 0.4000 0.4000 0.0000 (   946 PWs)   bands (ev):

   -23.9583  -7.5332  -7.5171  -5.9572   8.7786  10.8405  14.2748  14.3888
    15.1430  15.2306  18.7432  21.1273  22.6337  23.7444  24.7512  26.4953
    28.1568  29.6082  32.0579  33.0970  34.1537  38.2488  38.6744  38.7662
    38.8141  39.0524

          k = 0.3750 0.3750 0.0000 (   942 PWs)   bands (ev):

   -23.9775  -7.4780  -7.4544  -5.9733   9.0060  10.7210  14.3220  14.4907
    14.7369  14.8882  18.7150  20.7552  22.8555  24.0781  25.4461  26.8149
    28.4263  28.9959  31.1406  32.3801  35.1644  37.6180  37.7691  38.9236
    39.5311  39.7145

          k = 0.3500 0.3500 0.0000 (   946 PWs)   bands (ev):

   -23.9999  -7.4112  -7.3799  -5.9922   9.2553  10.5965  14.2778  14.3859
    14.5044  14.6136  18.7507  20.4781  23.0278  24.4676  26.1262  26.9690
    28.4762  29.0249  30.2516  31.6748  36.1478  36.7754  36.9521  38.7901
    40.2662  40.4723

          k = 0.3250 0.3250 0.0000 (   946 PWs)   bands (ev):

   -24.0251  -7.3335  -7.2948  -6.0134   9.4877  10.4956  13.7881  14.1062
    14.4694  14.7562  18.8418  20.2951  23.1153  24.8954  26.6019  27.1805
    28.2338  29.4082  29.7390  30.9834  35.8613  35.9319  37.4770  38.5391
    40.3295  40.6151

          k = 0.3000 0.3000 0.0000 (   947 PWs)   bands (ev):

   -24.0522  -7.2457  -7.2009  -6.0364   9.6224  10.4783  13.2862  13.7326
    14.5745  14.9173  18.9786  20.1977  23.1150  25.3233  26.5694  27.5286
    28.5629  28.6477  30.3084  30.4499  35.0804  35.1123  38.2450  38.5200
    39.3346  40.6868

          k = 0.2750 0.2750 0.0000 (   933 PWs)   bands (ev):

   -24.0807  -7.1491  -7.0997  -6.0606   9.5917  10.5728  12.7864  13.4406
    14.7031  15.0948  19.1523  20.1733  23.0536  25.6485  26.2299  27.9997
    28.0710  29.2407  29.6525  31.0550  34.3459  34.4346  37.9445  38.0246
    39.8356  40.5214

          k = 0.2500 0.2500 0.0000 (   927 PWs)   bands (ev):

   -24.1099  -7.0453  -6.9936  -6.0854   9.4422  10.6709  12.2998  13.3066
    14.8563  15.2865  19.3552  20.2071  22.9692  25.6464  25.8401  27.9006
    28.5338  29.0191  29.9533  31.3949  33.6965  34.0970  36.9143  37.6564
    40.2287  40.8306

          k = 0.2250 0.2250 0.0000 (   937 PWs)   bands (ev):

   -24.1390  -6.9366  -6.8849  -6.1103   9.2348  10.6610  11.8350  13.3929
    15.0343  15.4893  19.5796  20.2824  22.8976  25.2373  25.4755  28.2135
    28.4122  29.0075  30.4646  31.4179  33.3310  34.0724  35.9607  37.3925
    39.8916  40.6608

          k = 0.2000 0.2000 0.0000 (   945 PWs)   bands (ev):

   -24.1673  -6.8253  -6.7761  -6.1347   8.9966  10.5349  11.3993  13.6882
    15.2368  15.6996  19.8175  20.3817  22.8694  24.6373  25.1618  27.8367
    28.7901  29.1680  30.4926  31.5058  33.5134  33.6818  35.7322  37.1618
    39.5544  40.3655

          k = 0.1750 0.1750 0.0000 (   941 PWs)   bands (ev):

   -24.1942  -6.7144  -6.6701  -6.1578   8.7413  10.3493  10.9989  14.1250
    15.4617  15.9127  20.0593  20.4874  22.9103  23.9913  24.9131  27.2984
    28.8659  29.4809  30.0842  31.9853  32.7282  34.1909  36.2535  36.9729
    39.2390  40.0994

          k = 0.1500 0.1500 0.0000 (   945 PWs)   bands (ev):

   -24.2189  -6.6073  -6.5699  -6.1791   8.4812  10.1553  10.6393  14.6379
    15.7055  16.1230  20.2941  20.5863  23.0396  23.3540  24.7408  26.8038
    28.3049  29.4994  30.2235  31.6114  32.7758  35.1012  36.8360  37.0051
    38.9565  39.8697

          k = 0.1250 0.1250 0.0000 (   945 PWs)   bands (ev):

   -24.2409  -6.5077  -6.4785  -6.1982   8.2300   9.9800  10.3256  15.1780
    15.9623  16.3235  20.5094  20.6737  22.7512  23.2662  24.6546  26.3610
    27.6637  28.8693  30.5286  30.9802  33.6711  36.1107  36.7663  37.8187
    38.7127  39.6833

          k = 0.1000 0.1000 0.0000 (   941 PWs)   bands (ev):

   -24.2596  -6.4194  -6.3987  -6.2144   8.0018   9.8343  10.0621  15.7044
    16.2222  16.5062  20.6934  20.7542  22.2016  23.5883  24.6614  25.9788
    27.0235  28.2456  29.4887  31.7125  34.6401  36.7875  37.1583  38.5109
    38.6278  39.5548

          k = 0.0750 0.0750 0.0000 (   947 PWs)   bands (ev):

   -24.2747  -6.3460  -6.3334  -6.2275   7.8099   9.7214   9.8529  16.1770
    16.4699  16.6622  20.8354  20.8371  21.7254  23.9956  24.7607  25.6669
    26.4343  27.6562  28.5181  32.3699  35.6445  36.9350  38.1633  38.3529
    39.3255  39.5450

          k = 0.0500 0.0500 0.0000 (   937 PWs)   bands (ev):

   -24.2857  -6.2908  -6.2849  -6.2371   7.6650   9.6414   9.7010  16.5546
    16.6827  16.7822  20.9179  20.9372  21.3479  24.4697  24.9364  25.4350
    25.9450  27.1291  27.6400  32.8907  36.6490  37.2487  38.2395  38.8149
    39.5670  39.9538

          k = 0.0250 0.0250 0.0000 (   937 PWs)   bands (ev):

   -24.2924  -6.2565  -6.2550  -6.2430   7.5749   9.5938   9.6088  16.7993
    16.8305  16.8581  20.9862  20.9951  21.1007  24.9613  25.1387  25.2918
    25.6131  26.7169  26.9056  33.2197  37.5867  37.7361  38.1713  38.9588
    39.3063  39.5231

          k = 0.0000 0.0000 0.0000 (   925 PWs)   bands (ev):

   -24.2947  -6.2449  -6.2449  -6.2449   7.5444   9.5780   9.5780  16.8842
    16.8842  16.8842  21.0139  21.0139  21.0139  25.2434  25.2434  25.2434
    25.4941  26.5426  26.5426  33.3308  38.1485  38.1485  38.1485  38.9754
    38.9754  38.9754

          k = 0.0250 0.0250 0.0250 (   937 PWs)   bands (ev):

   -24.2913  -6.2563  -6.2540  -6.2540   7.5902   9.6129   9.6129  16.7747
    16.8155  16.8155  21.0239  21.0391  21.0391  24.9889  24.9889  25.2671
    25.6737  26.9339  26.9339  33.1615  37.3699  37.8638  37.8638  39.2605
    39.2605  39.6012

          k = 0.0500 0.0500 0.0500 (   934 PWs)   bands (ev):

   -24.2812  -6.2897  -6.2809  -6.2809   7.7260   9.7172   9.7172  16.4729
    16.6143  16.6143  21.0577  21.1137  21.1137  24.5949  24.5949  25.3384
    26.1814  27.7335  27.7335  32.6342  36.4087  37.4043  37.4043  39.2860
    39.2860  40.1987

          k = 0.0750 0.0750 0.0750 (   943 PWs)   bands (ev):

   -24.2647  -6.3430  -6.3244  -6.3244   7.9457   9.8889   9.8889  16.0415
    16.2945  16.2945  21.1200  21.2339  21.2339  24.2967  24.2967  25.4570
    26.9469  28.6901  28.6901  31.7540  35.6877  36.9613  36.9613  38.3616
    38.3616  40.4630

          k = 0.1000 0.1000 0.1000 (   949 PWs)   bands (ev):

   -24.2422  -6.4129  -6.3827  -6.3827   8.2393  10.1245  10.1245  15.5493
    15.8782  15.8782  21.2103  21.3951  21.3951  24.1372  24.1372  25.6228
    27.8932  29.7300  29.7300  30.6322  35.2058  36.5546  36.5546  37.3281
    37.3281  40.2305

          k = 0.1250 0.1250 0.1250 (   943 PWs)   bands (ev):

   -24.2141  -6.4955  -6.4532  -6.4532   8.5908  10.4193  10.4193  15.0560
    15.3933  15.3933  21.3214  21.5925  21.5925  24.1180  24.1180  25.8356
    28.8804  29.4868  30.7958  30.7958  34.8907  36.0832  36.0832  36.4747
    36.4747  39.6868

          k = 0.1500 0.1500 0.1500 (   943 PWs)   bands (ev):

   -24.1813  -6.5866  -6.5334  -6.5334   8.9762  10.7663  10.7663  14.6140
    14.8696  14.8696  21.4381  21.8219  21.8219  24.2280  24.2280  26.0950
    28.1042  30.1643  31.7725  31.7725  34.7044  35.3594  35.3594  36.1103
    36.1103  39.0427

          k = 0.1750 0.1750 0.1750 (   943 PWs)   bands (ev):

   -24.1445  -6.6823  -6.6204  -6.6204   9.3596  11.1536  11.1536  14.2757
    14.3385  14.3385  21.5312  22.0801  22.0801  24.4521  24.4521  26.4006
    26.9475  31.2745  32.3179  32.3179  34.6595  34.9678  34.9678  35.9867
    35.9867  38.3896

          k = 0.2000 0.2000 0.2000 (   946 PWs)   bands (ev):

   -24.1046  -6.7789  -6.7113  -6.7113   9.6909  11.5563  11.5563  13.8401
    13.8401  14.0996  21.5441  22.3646  22.3646  24.7735  24.7735  25.9320
    26.7518  32.0414  32.0414  32.2302  34.8113  35.1536  35.1536  36.2384
    36.2384  37.8207

          k = 0.2250 0.2250 0.2250 (   934 PWs)   bands (ev):

   -24.0626  -6.8733  -6.8034  -6.8034   9.9165  11.9008  11.9008  13.4592
    13.4592  14.1430  21.3809  22.6722  22.6722  25.1743  25.1743  25.1757
    27.1477  31.3178  31.3178  32.8498  35.0949  35.2792  35.2792  37.1053
    37.1053  37.5722

          k = 0.2500 0.2500 0.2500 (   946 PWs)   bands (ev):

   -24.0195  -6.9630  -6.8944  -6.8944  10.0104  11.9877  11.9877  13.4021
    13.4021  14.4311  20.9501  22.9978  22.9978  24.7795  25.6317  25.6317
    27.5873  30.4996  30.4996  33.1620  35.0472  35.3109  35.3109  38.0624
    38.1984  38.1984

          k = 0.2750 0.2750 0.2750 (   949 PWs)   bands (ev):

   -23.9765  -7.0463  -6.9820  -6.9820   9.9948  11.7428  11.7428  13.7482
    13.7482  14.9379  20.2782  23.3312  23.3312  24.7233  26.1088  26.1088
    28.0689  29.7203  29.7203  33.3381  34.5893  35.3416  35.3416  39.0066
    39.0066  39.1169

          k = 0.3000 0.3000 0.3000 (   943 PWs)   bands (ev):

   -23.9345  -7.1217  -7.0644  -7.0644   9.9182  11.3772  11.3772  14.2888
    14.2888  15.6080  19.4833  23.6515  23.6515  24.8932  26.5233  26.5233
    28.5904  29.1001  29.1001  33.4787  33.9823  35.3684  35.3684  38.9410
    38.9410  39.4835

          k = 0.3250 0.3250 0.3250 (   949 PWs)   bands (ev):

   -23.8946  -7.1885  -7.1401  -7.1401   9.8237  11.0044  11.0044  14.9119
    14.9119  16.3868  18.6643  23.9125  23.9125  25.1938  26.7041  26.7041
    28.8528  28.8528  29.1484  33.3085  33.6498  35.3329  35.3329  38.4050
    38.4452  38.4452

          k = 0.3500 0.3500 0.3500 (   949 PWs)   bands (ev):

   -23.8578  -7.2463  -7.2077  -7.2077   9.7386  10.6599  10.6599  15.5819
    15.5819  17.2283  17.8812  24.0187  24.0187  25.5706  26.6109  26.6109
    29.1019  29.1019  29.7380  32.6570  33.8037  35.1290  35.1290  37.1763
    38.0917  38.0917

          k = 0.3750 0.3750 0.3750 (   946 PWs)   bands (ev):

   -23.8249  -7.2949  -7.2663  -7.2663   9.6763  10.3575  10.3575  16.2836
    16.2836  17.1542  18.1081  23.8432  23.8432  25.9914  26.5572  26.5572
    29.6393  29.6393  30.3510  32.0105  33.9355  34.6979  34.6979  36.0457
    38.0697  38.0697

          k = 0.4000 0.4000 0.4000 (   952 PWs)   bands (ev):

   -23.7969  -7.3345  -7.3151  -7.3151   9.6408  10.1042  10.1042  16.5279
    17.0069  17.0069  18.9661  23.3754  23.3754  26.4317  26.7114  26.7114
    30.2737  30.2737  30.9738  31.3898  33.8510  34.1229  34.1229  35.2488
    38.3311  38.3311

          k = 0.4250 0.4250 0.4250 (   940 PWs)   bands (ev):

   -23.7743  -7.3648  -7.3535  -7.3535   9.6286   9.9040   9.9040  16.0113
    17.7406  17.7406  19.7641  22.7371  22.7371  26.8655  26.9990  26.9990
    30.8183  30.9055  30.9055  31.5818  33.2820  33.5336  33.5336  35.0827
    38.6072  38.6072

          k = 0.4500 0.4500 0.4500 (   940 PWs)   bands (ev):

   -23.7578  -7.3864  -7.3813  -7.3813   9.6315   9.7595   9.7595  15.6243
    18.4644  18.4644  20.4350  22.0410  22.0410  27.2541  27.3102  27.3102
    30.3370  31.4468  31.4468  32.1295  32.5805  33.0413  33.0413  35.2189
    38.2091  38.2091

          k = 0.4750 0.4750 0.4750 (   955 PWs)   bands (ev):

   -23.7477  -7.3993  -7.3981  -7.3981   9.6392   9.6721   9.6721  15.3839
    19.1176  19.1176  20.8944  21.3924  21.3924  27.5375  27.5515  27.5515
    30.0079  31.7821  31.7821  32.0609  32.5362  32.7557  32.7557  35.3708
    37.7578  37.7578

          k = 0.5000 0.5000 0.5000 (   968 PWs)   bands (ev):

   -23.7444  -7.4037  -7.4037  -7.4037   9.6429   9.6429   9.6429  15.3022
    19.4500  19.4500  21.0598  21.0598  21.0598  27.6437  27.6437  27.6437
    29.8909  31.8683  31.8683  31.8683  32.6919  32.6919  32.6919  35.4328
    37.5846  37.5846

     Writing all to output data dir ./work/POSCAR.save/

     init_run     :      0.15s CPU      0.18s WALL (       1 calls)
     electrons    :      2.62s CPU      2.89s WALL (       1 calls)

     Called by init_run:
     wfcinit      :      0.00s CPU      0.01s WALL (       1 calls)
     potinit      :      0.06s CPU      0.08s WALL (       1 calls)
     hinit0       :      0.08s CPU      0.08s WALL (       1 calls)

     Called by electrons:
     c_bands      :      2.62s CPU      2.89s WALL (       1 calls)
     v_of_rho     :      0.00s CPU      0.00s WALL (       1 calls)
     newd         :      0.00s CPU      0.00s WALL (       1 calls)
     PAW_pot      :      0.02s CPU      0.04s WALL (       1 calls)

     Called by c_bands:
     init_us_2    :      0.00s CPU      0.00s WALL (      91 calls)
     init_us_2:cp :      0.00s CPU      0.00s WALL (      91 calls)
     cegterg      :      2.43s CPU      2.52s WALL (     119 calls)

     Called by *egterg:
     cdiaghg      :      0.89s CPU      0.92s WALL (    1760 calls)
     h_psi        :      1.26s CPU      1.30s WALL (    1879 calls)
     s_psi        :      0.02s CPU      0.02s WALL (    1879 calls)
     g_psi        :      0.01s CPU      0.01s WALL (    1669 calls)

     Called by h_psi:
     h_psi:calbec :      0.06s CPU      0.06s WALL (    1879 calls)
     vloc_psi     :      1.17s CPU      1.21s WALL (    1879 calls)
     add_vuspsi   :      0.02s CPU      0.02s WALL (    1879 calls)

     General routines
     calbec       :      0.06s CPU      0.06s WALL (    1879 calls)
     fft          :      0.06s CPU      0.06s WALL (      13 calls)
     ffts         :      0.03s CPU      0.03s WALL (       1 calls)
     fftw         :      1.07s CPU      1.11s WALL (   51830 calls)
     interpolate  :      0.03s CPU      0.03s WALL (       1 calls)
     davcio       :      0.00s CPU      0.13s WALL (     182 calls)

     Parallel routines

     PWSCF        :      3.14s CPU      4.15s WALL


   This run was terminated on:  22:40:21  15May2024            

=------------------------------------------------------------------------------=
   JOB DONE.
=------------------------------------------------------------------------------=
