
     Program PWSCF v.7.1 starts on 15May2024 at 22:40:14 

     This program is part of the open-source Quantum ESPRESSO suite
     for quantum simulation of materials; please cite
         "P. Giannozzi et al., J. Phys.:Condens. Matter 21 395502 (2009);
         "P. Giannozzi et al., J. Phys.:Condens. Matter 29 465901 (2017);
         "P. Giannozzi et al., J. Chem. Phys. 152 154105 (2020);
          URL http://www.quantum-espresso.org", 
     in publications or presentations arising from this work. More details at
     http://www.quantum-espresso.org/quote

     Parallel version (MPI & OpenMP), running on      10 processor cores
     Number of MPI processes:                10
     Threads/MPI process:                     1

     MPI processes distributed on     1 nodes
     14553 MiB available memory on the printing compute node when the environment starts

     Waiting for input...
     Reading input from standard input

     Current dimensions of program PWSCF are:
     Max number of different atomic species (ntypx) = 10
     Max number of k-points (npk) =  40000
     Max angular momentum in pseudopotentials (lmaxx) =  4
     file Ce.pbe-spdn-kjpaw_psl.1.0.0.UPF: wavefunction(s)  5D renormalized
     Message from routine setup:
     using ibrav=0 with symmetry is DISCOURAGED, use correct ibrav instead

     R & G space division:  proc/nbgrp/npool/nimage =      10
     Subspace diagonalization in iterative solution of the eigenvalue problem:
     a serial algorithm will be used


     Parallelization info
     --------------------
     sticks:   dense  smooth     PW     G-vecs:    dense   smooth      PW
     Min          55      46     14                  993      748     134
     Max          57      47     15                  995      751     137
     Sum         561     465    145                 9939     7497    1357

     Using Slab Decomposition



     bravais-lattice index     =            0
     lattice parameter (alat)  =       6.2818  a.u.
     unit-cell volume          =     247.8894 (a.u.)^3
     number of atoms/cell      =            1
     number of atomic types    =            1
     number of electrons       =        11.00
     number of Kohn-Sham states=           26
     kinetic-energy cutoff     =      37.0000  Ry
     charge density cutoff     =     179.0000  Ry
     scf convergence threshold =      7.3E-05
     mixing beta               =       0.7000
     number of iterations used =            8  plain     mixing
     Exchange-correlation= SLA  PW   PBX  PBC
                           (   1   4   3   4   0   0   0)

     celldm(1)=   6.281828  celldm(2)=   0.000000  celldm(3)=   0.000000
     celldm(4)=   0.000000  celldm(5)=   0.000000  celldm(6)=   0.000000

     crystal axes: (cart. coord. in units of alat)
               a(1) = (   1.000000   0.000000   0.000000 )  
               a(2) = (   0.000000   1.000000   0.000000 )  
               a(3) = (   0.000000   0.000000   1.000000 )  

     reciprocal axes: (cart. coord. in units 2 pi/alat)
               b(1) = (  1.000000  0.000000  0.000000 )  
               b(2) = (  0.000000  1.000000  0.000000 )  
               b(3) = (  0.000000  0.000000  1.000000 )  


     PseudoPot. # 1 for Ce read from file:
     ./../../../../pseudo/psl100_PBE/Ce.pbe-spdn-kjpaw_psl.1.0.0.UPF
     MD5 check sum: 1a25380276e46fcecd5a173acdad072c
     Pseudo is Projector augmented-wave + core cor, Zval = 11.0
     Generated using 'atomic' code by A. Dal Corso  v.7.2
     Shape of augmentation charge: PSQ
     Using radial grid of 1255 points,  6 beta functions with: 
                l(1) =   0
                l(2) =   0
                l(3) =   1
                l(4) =   1
                l(5) =   2
                l(6) =   2
     Q(r) pseudized with 0 coefficients 


     atomic species   valence    mass     pseudopotential
        Ce            11.00   140.11600     Ce( 1.00)

     48 Sym. Ops., with inversion, found



   Cartesian axes

     site n.     atom                  positions (alat units)
         1           Ce  tau(   1) = (   0.0000000   0.0000000   0.0000000  )

     number of k points=    35  Methfessel-Paxton smearing, width (Ry)=  0.0200
                       cart. coord. in units 2pi/alat
        k(    1) = (   0.0000000   0.0000000   0.0000000), wk =   0.0027435
        k(    2) = (   0.0000000   0.0000000   0.1111111), wk =   0.0164609
        k(    3) = (   0.0000000   0.0000000   0.2222222), wk =   0.0164609
        k(    4) = (   0.0000000   0.0000000   0.3333333), wk =   0.0164609
        k(    5) = (   0.0000000   0.0000000   0.4444444), wk =   0.0164609
        k(    6) = (   0.0000000   0.1111111   0.1111111), wk =   0.0329218
        k(    7) = (   0.0000000   0.1111111   0.2222222), wk =   0.0658436
        k(    8) = (   0.0000000   0.1111111   0.3333333), wk =   0.0658436
        k(    9) = (   0.0000000   0.1111111   0.4444444), wk =   0.0658436
        k(   10) = (   0.0000000   0.2222222   0.2222222), wk =   0.0329218
        k(   11) = (   0.0000000   0.2222222   0.3333333), wk =   0.0658436
        k(   12) = (   0.0000000   0.2222222   0.4444444), wk =   0.0658436
        k(   13) = (   0.0000000   0.3333333   0.3333333), wk =   0.0329218
        k(   14) = (   0.0000000   0.3333333   0.4444444), wk =   0.0658436
        k(   15) = (   0.0000000   0.4444444   0.4444444), wk =   0.0329218
        k(   16) = (   0.1111111   0.1111111   0.1111111), wk =   0.0219479
        k(   17) = (   0.1111111   0.1111111   0.2222222), wk =   0.0658436
        k(   18) = (   0.1111111   0.1111111   0.3333333), wk =   0.0658436
        k(   19) = (   0.1111111   0.1111111   0.4444444), wk =   0.0658436
        k(   20) = (   0.1111111   0.2222222   0.2222222), wk =   0.0658436
        k(   21) = (   0.1111111   0.2222222   0.3333333), wk =   0.1316872
        k(   22) = (   0.1111111   0.2222222   0.4444444), wk =   0.1316872
        k(   23) = (   0.1111111   0.3333333   0.3333333), wk =   0.0658436
        k(   24) = (   0.1111111   0.3333333   0.4444444), wk =   0.1316872
        k(   25) = (   0.1111111   0.4444444   0.4444444), wk =   0.0658436
        k(   26) = (   0.2222222   0.2222222   0.2222222), wk =   0.0219479
        k(   27) = (   0.2222222   0.2222222   0.3333333), wk =   0.0658436
        k(   28) = (   0.2222222   0.2222222   0.4444444), wk =   0.0658436
        k(   29) = (   0.2222222   0.3333333   0.3333333), wk =   0.0658436
        k(   30) = (   0.2222222   0.3333333   0.4444444), wk =   0.1316872
        k(   31) = (   0.2222222   0.4444444   0.4444444), wk =   0.0658436
        k(   32) = (   0.3333333   0.3333333   0.3333333), wk =   0.0219479
        k(   33) = (   0.3333333   0.3333333   0.4444444), wk =   0.0658436
        k(   34) = (   0.3333333   0.4444444   0.4444444), wk =   0.0658436
        k(   35) = (   0.4444444   0.4444444   0.4444444), wk =   0.0219479

     Dense  grid:     9939 G-vectors     FFT dimensions: (  27,  27,  27)

     Smooth grid:     7497 G-vectors     FFT dimensions: (  25,  25,  25)

     Estimated max dynamical RAM per process >       5.84 MB

     Estimated total dynamical RAM >      58.37 MB

     Initial potential from superposition of free atoms

     starting charge      10.9735, renormalised to      11.0000
     Starting wfcs are   13 randomized atomic wfcs +   13 random wfcs
     Checking if some PAW data can be deallocated... 

     total cpu time spent up to now is        0.4 secs

     per-process dynamical memory:    13.5 Mb

     Self-consistent Calculation

     iteration #  1     ecut=    37.00 Ry     beta= 0.70
     Davidson diagonalization with overlap
     ethr =  1.00E-02,  avg # of iterations =  6.8

     Threshold (ethr) on eigenvalues was too large:
     Diagonalizing with lowered threshold

     Davidson diagonalization with overlap
     ethr =  4.99E-05,  avg # of iterations =  3.8

     total cpu time spent up to now is        1.2 secs

     total energy              =    -471.69914035 Ry
     estimated scf accuracy    <       0.00568360 Ry

     iteration #  2     ecut=    37.00 Ry     beta= 0.70
     Davidson diagonalization with overlap
     ethr =  5.17E-05,  avg # of iterations =  1.5

     total cpu time spent up to now is        1.4 secs

     total energy              =    -471.70040642 Ry
     estimated scf accuracy    <       0.00033713 Ry

     iteration #  3     ecut=    37.00 Ry     beta= 0.70
     Davidson diagonalization with overlap
     ethr =  3.06E-06,  avg # of iterations =  3.0

     total cpu time spent up to now is        1.7 secs

     End of self-consistent calculation

          k = 0.0000 0.0000 0.0000 (   925 PWs)   bands (ev):

   -24.2888  -6.2409  -6.2409  -6.2409   7.5435   9.5778   9.5778  16.8857
    16.8857  16.8857  21.0115  21.0115  21.0115  25.2407  25.2407  25.2407
    25.4993  26.5427  26.5427  33.3296  38.1456  38.1456  38.1456  38.9780
    38.9780  38.9781

          k = 0.0000 0.0000 0.1111 (   944 PWs)   bands (ev):

   -24.2673  -6.4614  -6.2221  -6.2221   7.8190   9.6572   9.9614  16.2031
    16.2031  16.9297  20.0090  21.6982  21.6982  23.3469  25.7360  25.7360
    26.0763  27.4635  28.8015  32.4715  36.0244  36.0244  37.0477  38.0528
    39.3998  41.0017

          k = 0.0000 0.0000 0.2222 (   936 PWs)   bands (ev):

   -24.2121  -6.9799  -6.1741  -6.1741   8.4273   9.8718  11.0387  15.0249
    15.0249  17.0450  18.5616  21.3539  22.7732  22.7732  26.3783  27.2543
    27.2543  30.0003  31.0512  31.8958  32.9364  33.9983  33.9983  35.9091
    41.7678  42.0112

          k = 0.0000 0.0000 0.3333 (   932 PWs)   bands (ev):

   -24.1480  -7.5154  -6.1186  -6.1186   9.1180  10.1447  12.1114  14.0678
    14.0678  17.1831  18.1798  19.8713  23.5874  23.5874  25.8798  29.1784
    29.1784  29.6975  29.9090  31.9096  33.0112  33.0112  35.2196  35.6738
    41.7072  41.7072

          k = 0.0000 0.0000 0.4444 (   936 PWs)   bands (ev):

   -24.1054  -7.8405  -6.0819  -6.0819   9.6897  10.3442  12.2904  13.5524
    13.5524  17.2779  19.0623  19.6494  23.3862  24.0757  24.0757  29.1294
    29.2897  29.7544  29.7544  31.5126  34.4515  34.4515  38.4781  38.6636
    38.8620  38.8621

          k = 0.0000 0.1111 0.1111 (   949 PWs)   bands (ev):

   -24.2459  -6.4532  -6.4286  -6.2035   8.0988   9.8951  10.1727  15.4750
    16.1079  16.4289  20.6143  20.7186  22.4365  23.4326  24.6444  26.1384
    27.3078  28.5193  29.9430  31.3910  34.2035  36.6923  36.7652  38.2737
    38.5924  39.6048

          k = 0.0000 0.1111 0.2222 (   942 PWs)   bands (ev):

   -24.1908  -6.9567  -6.3880  -6.1558   8.6985  10.1686  11.1448  14.3330
    15.0744  16.4477  19.1419  21.5957  21.9644  23.6396  26.0378  27.4595
    27.9595  29.8379  30.5657  32.3409  32.6715  33.1500  35.5173  37.8878
    38.0543  40.6898

          k = 0.0000 0.1111 0.3333 (   938 PWs)   bands (ev):

   -24.1270  -7.4888  -6.3279  -6.1007   9.3675  10.4545  11.8276  13.9471
    14.1350  16.6050  18.4990  20.5691  22.3430  24.5135  26.8078  28.0486
    28.0545  30.0802  30.1722  31.5057  33.6517  34.3234  35.3128  37.2021
    38.4468  41.5267

          k = 0.0000 0.1111 0.4444 (   930 PWs)   bands (ev):

   -24.0845  -7.8120  -6.2879  -6.0642   9.9518  10.7099  11.4343  13.6248
    14.1346  16.7177  19.5491  19.8843  22.7421  23.9742  25.0500  27.3549
    28.1464  30.3686  31.7231  32.9000  34.1390  34.7199  36.8672  37.5151
    39.0352  39.6009

          k = 0.0000 0.2222 0.2222 (   937 PWs)   bands (ev):

   -24.1363  -6.9206  -6.8691  -6.1090   9.2091  10.6521  11.7852  13.4159
    15.0559  15.5130  19.6043  20.2926  22.8923  25.1757  25.4353  28.2658
    28.3453  29.0475  30.4957  31.4158  33.3201  34.0665  35.8856  37.3662
    39.8511  40.6298

          k = 0.0000 0.2222 0.3333 (   931 PWs)   bands (ev):

   -24.0730  -7.4203  -6.8230  -6.0548   9.6785  10.6029  12.2613  13.9567
    14.3112  15.5259  18.8739  20.7687  22.2804  25.7100  26.5069  27.4868
    27.8102  28.8361  30.4819  32.3059  33.3134  35.5683  36.7465  38.1206
    38.7961  40.9342

          k = 0.0000 0.2222 0.4444 (   944 PWs)   bands (ev):

   -24.0310  -7.7388  -6.7765  -6.0190   9.9562  10.4350  12.2430  13.8190
    14.7909  15.6531  19.4218  21.2966  21.9108  23.9344  25.4287  26.6676
    27.4729  31.3014  32.8678  33.2375  33.5551  35.1904  35.7566  37.2969
    39.6152  39.9301

          k = 0.0000 0.3333 0.3333 (   946 PWs)   bands (ev):

   -24.0104  -7.3571  -7.3208  -6.0019   9.4157  10.5231  13.9537  14.2382
    14.4393  14.7068  18.8054  20.3453  23.0996  24.7489  26.4877  27.0957
    28.2608  29.4971  29.6808  31.2117  36.1139  36.2106  37.1390  38.6320
    40.5278  40.6688

          k = 0.0000 0.3333 0.4444 (   945 PWs)   bands (ev):

   -23.9689  -7.6531  -7.2850  -5.9669   9.0160  10.7411  14.0627  14.2508
    14.7449  15.3246  18.9364  21.3353  22.6990  23.7968  24.0669  26.9616
    28.4326  30.4994  30.7327  33.8850  34.0028  36.6678  37.0989  39.2242
    39.6724  40.4989

          k = 0.0000 0.4444 0.4444 (   944 PWs)   bands (ev):

   -23.9276  -7.5983  -7.5929  -5.9323   8.4778  11.0038  14.2243  14.2619
    15.6656  15.6827  18.9408  21.9328  22.3232  23.3158  23.6825  25.3829
    28.5285  30.7172  32.5605  33.7193  34.3932  36.8849  37.7652  37.8549
    39.9954  40.1728

          k = 0.1111 0.1111 0.1111 (   943 PWs)   bands (ev):

   -24.2245  -6.4444  -6.4087  -6.4087   8.3890  10.2486  10.2486  15.3272
    15.6699  15.6699  21.2589  21.4773  21.4773  24.1102  24.1102  25.7090
    28.3521  30.0986  30.2043  30.2043  35.0498  36.3723  36.3723  36.9021
    36.9021  40.0116

          k = 0.1111 0.1111 0.2222 (   944 PWs)   bands (ev):

   -24.1696  -6.9335  -6.3787  -6.3578   8.9902  10.4564  11.2331  14.3927
    14.4141  15.7574  19.8977  22.1473  22.2414  23.1521  25.8595  26.8343
    28.3317  29.3218  31.5368  32.7716  33.3666  33.8898  34.5087  37.1599
    38.6606  39.6554

          k = 0.1111 0.1111 0.3333 (   939 PWs)   bands (ev):

   -24.1060  -7.4624  -6.3183  -6.2988   9.6476  10.7325  11.7249  13.3457
    14.5068  15.9523  19.0652  21.0523  22.7364  23.9919  26.2712  27.4312
    28.8861  29.2167  30.9496  32.6359  32.8676  35.0192  35.4504  38.1925
    38.3318  39.6630

          k = 0.1111 0.1111 0.4444 (   936 PWs)   bands (ev):

   -24.0637  -7.7839  -6.2782  -6.2597  10.3127  10.9554  11.2000  12.7515
    15.1677  16.0953  19.8213  20.3282  22.9072  24.4774  24.5187  25.5578
    30.0043  30.4699  31.5454  33.3004  33.7476  35.5727  36.2419  37.7157
    37.7956  39.4388

          k = 0.1111 0.2222 0.2222 (   935 PWs)   bands (ev):

   -24.1153  -6.8978  -6.8467  -6.3171   9.5017  10.9506  11.8213  13.4670
    14.5328  14.7105  20.7075  20.9878  23.1068  24.3343  25.4790  26.8310
    27.4496  30.6797  31.0127  32.6610  33.7907  34.2822  35.9519  36.5966
    37.6979  39.3099

          k = 0.1111 0.2222 0.3333 (   937 PWs)   bands (ev):

   -24.0522  -7.3946  -6.8011  -6.2587   9.8873  10.9664  12.2711  13.0720
    14.7626  14.9064  19.7442  21.5117  22.4981  24.3607  26.1690  27.4492
    28.1997  29.4789  30.2113  32.6674  34.0429  35.3505  36.6393  38.3420
    38.8839  40.0126

          k = 0.1111 0.2222 0.4444 (   936 PWs)   bands (ev):

   -24.0103  -7.7114  -6.7549  -6.2200  10.0215  10.9543  12.2776  12.5590
    15.0345  16.0473  19.9013  21.8055  22.0327  23.5020  24.7706  26.6287
    28.5837  31.5277  32.2144  32.8537  34.3072  34.8756  35.6342  37.8279
    38.8690  39.2425

          k = 0.1111 0.3333 0.3333 (   941 PWs)   bands (ev):

   -23.9898  -7.3319  -7.2963  -6.2018   9.5128  11.0176  13.1652  13.1777
    14.8068  15.2639  19.8460  20.7423  22.5188  24.5802  26.6021  28.2770
    28.3355  28.7023  30.1496  30.4028  36.4742  37.3897  37.4098  37.9202
    39.0470  39.0756

          k = 0.1111 0.3333 0.4444 (   940 PWs)   bands (ev):

   -23.9484  -7.6267  -7.2608  -6.1640   9.1160  11.2790  12.7686  13.3345
    15.1723  16.6284  19.6440  21.0050  22.1752  23.7797  24.9949  27.9857
    28.2115  29.9700  30.8792  33.1010  34.0980  36.2039  37.7465  38.9756
    39.1268  39.8740

          k = 0.1111 0.4444 0.4444 (   956 PWs)   bands (ev):

   -23.9073  -7.5725  -7.5672  -6.1270   8.5903  11.5794  12.9711  12.9804
    16.8465  17.0213  19.2923  20.3386  22.4871  23.9052  24.9124  25.4348
    29.0588  30.8074  32.6636  33.0430  33.6321  36.9130  36.9717  37.0291
    39.6183  40.3843

          k = 0.2222 0.2222 0.2222 (   934 PWs)   bands (ev):

   -24.0614  -6.8593  -6.7895  -6.7895   9.8979  11.8704  11.8704  13.4903
    13.4903  14.1253  21.4144  22.6373  22.6373  25.1243  25.1243  25.2415
    27.0991  31.4073  31.4073  32.8008  35.0707  35.2730  35.2730  36.9886
    36.9887  37.5714

          k = 0.2222 0.2222 0.3333 (   944 PWs)   bands (ev):

   -23.9989  -7.3285  -6.7641  -6.7230  10.0144  11.6965  12.0661  12.8117
    13.9965  15.2379  20.6312  21.9990  23.3305  24.3569  25.1364  27.6134
    28.4504  28.4574  31.5886  32.4900  33.8799  35.5125  37.1032  37.9542
    38.9394  38.9599

          k = 0.2222 0.2222 0.4444 (   943 PWs)   bands (ev):

   -23.9573  -7.6409  -6.7184  -6.6788   9.9557  11.3727  11.9609  12.7130
    14.2630  17.2374  20.2679  21.1484  22.9285  24.2288  25.1678  25.7326
    30.4068  30.9210  31.4293  32.3944  33.6562  35.4143  36.2164  36.7121
    37.2512  41.3009

          k = 0.2222 0.3333 0.3333 (   948 PWs)   bands (ev):

   -23.9370  -7.2673  -7.2333  -6.6769   9.7236  11.3968  11.9051  13.1912
    14.9623  15.8948  19.7886  21.9449  23.7255  24.5581  26.8695  27.0193
    28.5020  29.2778  29.5780  31.7334  35.1006  35.6556  37.0790  37.6891
    39.1030  39.5277

          k = 0.2222 0.3333 0.4444 (   954 PWs)   bands (ev):

   -23.8960  -7.5587  -7.1985  -6.6333   9.3786  11.2253  11.7732  13.2700
    15.5114  17.9461  19.1629  21.0457  23.7228  24.4139  25.5436  27.2610
    29.3571  30.0066  31.4846  31.8913  34.2450  34.8191  35.4409  37.4042
    38.7787  39.9811

          k = 0.2222 0.4444 0.4444 (   950 PWs)   bands (ev):

   -23.8552  -7.5060  -7.5010  -6.5907   8.9051  11.3797  11.4689  13.3352
    17.7756  18.2319  18.6340  20.4423  23.6213  24.6726  25.2543  26.3397
    30.7936  31.0466  31.7903  32.3164  33.0121  35.1304  35.5414  35.7635
    37.3568  38.8710

          k = 0.3333 0.3333 0.3333 (   943 PWs)   bands (ev):

   -23.8758  -7.2053  -7.1600  -7.1600   9.7929  10.8845  10.8845  15.1318
    15.1318  16.6617  18.3985  23.9725  23.9725  25.3141  26.6915  26.6915
    28.8861  28.8861  29.3396  33.0932  33.6998  35.2898  35.2898  37.9926
    38.2964  38.2965

          k = 0.3333 0.3333 0.4444 (   954 PWs)   bands (ev):

   -23.8352  -7.4794  -7.1393  -7.1111   9.5832  10.3361  10.8690  15.2469
    16.0759  17.5467  18.8379  21.9985  25.2546  25.5863  26.0257  26.0739
    29.2570  30.7769  31.0456  32.6397  33.2485  33.5817  34.8659  36.8584
    36.8966  39.6803

          k = 0.3333 0.4444 0.4444 (   952 PWs)   bands (ev):

   -23.7948  -7.4287  -7.4240  -7.0767   9.3348  10.3022  10.3640  15.7397
    16.6563  18.1488  19.5919  21.6132  24.0652  25.8968  26.0636  26.9511
    30.9393  31.1829  31.6176  31.9634  32.5511  34.0599  34.2733  34.2814
    37.8583  38.0738

          k = 0.4444 0.4444 0.4444 (   940 PWs)   bands (ev):

   -23.7547  -7.3789  -7.3726  -7.3726   9.6290   9.7855   9.7855  15.6998
    18.3077  18.3077  20.3000  22.1959  22.1959  27.1775  27.2471  27.2471
    30.4318  31.3384  31.3384  32.0152  32.7265  33.1364  33.1364  35.1848
    38.3241  38.3242

     the Fermi energy is    10.7764 ev

!    total energy              =    -471.70045593 Ry
     total all-electron energy =    -17721.225185 Ry
     estimated scf accuracy    <       0.00001380 Ry
     smearing contrib. (-TS)   =       0.00020558 Ry
     internal energy E=F+TS    =    -471.70066152 Ry

     The total energy is F=E-TS. E is the sum of the following terms:
     one-electron contribution =      -6.92595288 Ry
     hartree contribution      =       8.82546383 Ry
     xc contribution           =     -73.17291057 Ry
     ewald contribution        =     -54.65176990 Ry
     one-center paw contrib.   =    -345.77549199 Ry

     convergence has been achieved in   3 iterations

     Writing all to output data dir ./work/POSCAR.save/

     init_run     :      0.22s CPU      0.22s WALL (       1 calls)
     electrons    :      0.98s CPU      1.28s WALL (       1 calls)

     Called by init_run:
     wfcinit      :      0.06s CPU      0.06s WALL (       1 calls)
     potinit      :      0.07s CPU      0.07s WALL (       1 calls)
     hinit0       :      0.08s CPU      0.08s WALL (       1 calls)

     Called by electrons:
     c_bands      :      0.80s CPU      1.05s WALL (       4 calls)
     sum_band     :      0.09s CPU      0.09s WALL (       4 calls)
     v_of_rho     :      0.00s CPU      0.00s WALL (       4 calls)
     newd         :      0.01s CPU      0.01s WALL (       4 calls)
     PAW_pot      :      0.12s CPU      0.14s WALL (       4 calls)
     mix_rho      :      0.00s CPU      0.00s WALL (       4 calls)

     Called by c_bands:
     init_us_2    :      0.01s CPU      0.01s WALL (     315 calls)
     init_us_2:cp :      0.00s CPU      0.00s WALL (     315 calls)
     cegterg      :      0.79s CPU      0.80s WALL (     140 calls)

     Called by *egterg:
     cdiaghg      :      0.26s CPU      0.26s WALL (     634 calls)
     h_psi        :      0.45s CPU      0.46s WALL (     704 calls)
     s_psi        :      0.01s CPU      0.01s WALL (     704 calls)
     g_psi        :      0.00s CPU      0.00s WALL (     529 calls)

     Called by h_psi:
     h_psi:calbec :      0.02s CPU      0.02s WALL (     704 calls)
     vloc_psi     :      0.42s CPU      0.43s WALL (     704 calls)
     add_vuspsi   :      0.01s CPU      0.01s WALL (     704 calls)

     General routines
     calbec       :      0.03s CPU      0.03s WALL (     844 calls)
     fft          :      0.06s CPU      0.06s WALL (      51 calls)
     ffts         :      0.03s CPU      0.03s WALL (       8 calls)
     fftw         :      0.45s CPU      0.46s WALL (   25268 calls)
     interpolate  :      0.03s CPU      0.03s WALL (       4 calls)

     Parallel routines

     PWSCF        :      1.31s CPU      2.04s WALL


   This run was terminated on:  22:40:16  15May2024            

=------------------------------------------------------------------------------=
   JOB DONE.
=------------------------------------------------------------------------------=
