
     Program PWSCF v.7.1 starts on 15May2024 at 22:39:11 

     This program is part of the open-source Quantum ESPRESSO suite
     for quantum simulation of materials; please cite
         "P. Giannozzi et al., J. Phys.:Condens. Matter 21 395502 (2009);
         "P. Giannozzi et al., J. Phys.:Condens. Matter 29 465901 (2017);
         "P. Giannozzi et al., J. Chem. Phys. 152 154105 (2020);
          URL http://www.quantum-espresso.org", 
     in publications or presentations arising from this work. More details at
     http://www.quantum-espresso.org/quote

     Parallel version (MPI & OpenMP), running on      10 processor cores
     Number of MPI processes:                10
     Threads/MPI process:                     1

     MPI processes distributed on     1 nodes
     14556 MiB available memory on the printing compute node when the environment starts

     Waiting for input...
     Reading input from standard input

     Current dimensions of program PWSCF are:
     Max number of different atomic species (ntypx) = 10
     Max number of k-points (npk) =  40000
     Max angular momentum in pseudopotentials (lmaxx) =  4
     file Ce.pbe-spdn-kjpaw_psl.1.0.0.UPF: wavefunction(s)  5D renormalized
     Message from routine setup:
     using ibrav=0 with symmetry is DISCOURAGED, use correct ibrav instead

     R & G space division:  proc/nbgrp/npool/nimage =      10
     Subspace diagonalization in iterative solution of the eigenvalue problem:
     a serial algorithm will be used


     Parallelization info
     --------------------
     sticks:   dense  smooth     PW     G-vecs:    dense   smooth      PW
     Min          51      43     14                  904      685     129
     Max          52      44     16                  906      688     132
     Sum         517     437    145                 9045     6859    1309

     Using Slab Decomposition



     bravais-lattice index     =            0
     lattice parameter (alat)  =       6.0854  a.u.
     unit-cell volume          =     225.3541 (a.u.)^3
     number of atoms/cell      =            1
     number of atomic types    =            1
     number of electrons       =        11.00
     number of Kohn-Sham states=           26
     kinetic-energy cutoff     =      37.0000  Ry
     charge density cutoff     =     179.0000  Ry
     scf convergence threshold =      7.3E-05
     mixing beta               =       0.7000
     number of iterations used =            8  plain     mixing
     Exchange-correlation= SLA  PW   PBX  PBC
                           (   1   4   3   4   0   0   0)

     celldm(1)=   6.085391  celldm(2)=   0.000000  celldm(3)=   0.000000
     celldm(4)=   0.000000  celldm(5)=   0.000000  celldm(6)=   0.000000

     crystal axes: (cart. coord. in units of alat)
               a(1) = (   1.000000   0.000000   0.000000 )  
               a(2) = (   0.000000   1.000000   0.000000 )  
               a(3) = (   0.000000   0.000000   1.000000 )  

     reciprocal axes: (cart. coord. in units 2 pi/alat)
               b(1) = (  1.000000  0.000000  0.000000 )  
               b(2) = (  0.000000  1.000000  0.000000 )  
               b(3) = (  0.000000  0.000000  1.000000 )  


     PseudoPot. # 1 for Ce read from file:
     ./../../../../pseudo/psl100_PBE/Ce.pbe-spdn-kjpaw_psl.1.0.0.UPF
     MD5 check sum: 1a25380276e46fcecd5a173acdad072c
     Pseudo is Projector augmented-wave + core cor, Zval = 11.0
     Generated using 'atomic' code by A. Dal Corso  v.7.2
     Shape of augmentation charge: PSQ
     Using radial grid of 1255 points,  6 beta functions with: 
                l(1) =   0
                l(2) =   0
                l(3) =   1
                l(4) =   1
                l(5) =   2
                l(6) =   2
     Q(r) pseudized with 0 coefficients 


     atomic species   valence    mass     pseudopotential
        Ce            11.00   140.11600     Ce( 1.00)

     48 Sym. Ops., with inversion, found



   Cartesian axes

     site n.     atom                  positions (alat units)
         1           Ce  tau(   1) = (   0.0000000   0.0000000   0.0000000  )

     number of k points=    56  Methfessel-Paxton smearing, width (Ry)=  0.0200
                       cart. coord. in units 2pi/alat
        k(    1) = (   0.0000000   0.0000000   0.0000000), wk =   0.0020000
        k(    2) = (   0.0000000   0.0000000   0.1000000), wk =   0.0120000
        k(    3) = (   0.0000000   0.0000000   0.2000000), wk =   0.0120000
        k(    4) = (   0.0000000   0.0000000   0.3000000), wk =   0.0120000
        k(    5) = (   0.0000000   0.0000000   0.4000000), wk =   0.0120000
        k(    6) = (   0.0000000   0.0000000  -0.5000000), wk =   0.0060000
        k(    7) = (   0.0000000   0.1000000   0.1000000), wk =   0.0240000
        k(    8) = (   0.0000000   0.1000000   0.2000000), wk =   0.0480000
        k(    9) = (   0.0000000   0.1000000   0.3000000), wk =   0.0480000
        k(   10) = (   0.0000000   0.1000000   0.4000000), wk =   0.0480000
        k(   11) = (   0.0000000   0.1000000  -0.5000000), wk =   0.0240000
        k(   12) = (   0.0000000   0.2000000   0.2000000), wk =   0.0240000
        k(   13) = (   0.0000000   0.2000000   0.3000000), wk =   0.0480000
        k(   14) = (   0.0000000   0.2000000   0.4000000), wk =   0.0480000
        k(   15) = (   0.0000000   0.2000000  -0.5000000), wk =   0.0240000
        k(   16) = (   0.0000000   0.3000000   0.3000000), wk =   0.0240000
        k(   17) = (   0.0000000   0.3000000   0.4000000), wk =   0.0480000
        k(   18) = (   0.0000000   0.3000000  -0.5000000), wk =   0.0240000
        k(   19) = (   0.0000000   0.4000000   0.4000000), wk =   0.0240000
        k(   20) = (   0.0000000   0.4000000  -0.5000000), wk =   0.0240000
        k(   21) = (   0.0000000  -0.5000000  -0.5000000), wk =   0.0060000
        k(   22) = (   0.1000000   0.1000000   0.1000000), wk =   0.0160000
        k(   23) = (   0.1000000   0.1000000   0.2000000), wk =   0.0480000
        k(   24) = (   0.1000000   0.1000000   0.3000000), wk =   0.0480000
        k(   25) = (   0.1000000   0.1000000   0.4000000), wk =   0.0480000
        k(   26) = (   0.1000000   0.1000000  -0.5000000), wk =   0.0240000
        k(   27) = (   0.1000000   0.2000000   0.2000000), wk =   0.0480000
        k(   28) = (   0.1000000   0.2000000   0.3000000), wk =   0.0960000
        k(   29) = (   0.1000000   0.2000000   0.4000000), wk =   0.0960000
        k(   30) = (   0.1000000   0.2000000  -0.5000000), wk =   0.0480000
        k(   31) = (   0.1000000   0.3000000   0.3000000), wk =   0.0480000
        k(   32) = (   0.1000000   0.3000000   0.4000000), wk =   0.0960000
        k(   33) = (   0.1000000   0.3000000  -0.5000000), wk =   0.0480000
        k(   34) = (   0.1000000   0.4000000   0.4000000), wk =   0.0480000
        k(   35) = (   0.1000000   0.4000000  -0.5000000), wk =   0.0480000
        k(   36) = (   0.1000000  -0.5000000  -0.5000000), wk =   0.0120000
        k(   37) = (   0.2000000   0.2000000   0.2000000), wk =   0.0160000
        k(   38) = (   0.2000000   0.2000000   0.3000000), wk =   0.0480000
        k(   39) = (   0.2000000   0.2000000   0.4000000), wk =   0.0480000
        k(   40) = (   0.2000000   0.2000000  -0.5000000), wk =   0.0240000
        k(   41) = (   0.2000000   0.3000000   0.3000000), wk =   0.0480000
        k(   42) = (   0.2000000   0.3000000   0.4000000), wk =   0.0960000
        k(   43) = (   0.2000000   0.3000000  -0.5000000), wk =   0.0480000
        k(   44) = (   0.2000000   0.4000000   0.4000000), wk =   0.0480000
        k(   45) = (   0.2000000   0.4000000  -0.5000000), wk =   0.0480000
        k(   46) = (   0.2000000  -0.5000000  -0.5000000), wk =   0.0120000
        k(   47) = (   0.3000000   0.3000000   0.3000000), wk =   0.0160000
        k(   48) = (   0.3000000   0.3000000   0.4000000), wk =   0.0480000
        k(   49) = (   0.3000000   0.3000000  -0.5000000), wk =   0.0240000
        k(   50) = (   0.3000000   0.4000000   0.4000000), wk =   0.0480000
        k(   51) = (   0.3000000   0.4000000  -0.5000000), wk =   0.0480000
        k(   52) = (   0.3000000  -0.5000000  -0.5000000), wk =   0.0120000
        k(   53) = (   0.4000000   0.4000000   0.4000000), wk =   0.0160000
        k(   54) = (   0.4000000   0.4000000  -0.5000000), wk =   0.0240000
        k(   55) = (   0.4000000  -0.5000000  -0.5000000), wk =   0.0120000
        k(   56) = (  -0.5000000  -0.5000000  -0.5000000), wk =   0.0020000

     Dense  grid:     9045 G-vectors     FFT dimensions: (  25,  25,  25)

     Smooth grid:     6859 G-vectors     FFT dimensions: (  24,  24,  24)

     Estimated max dynamical RAM per process >       6.11 MB

     Estimated total dynamical RAM >      61.05 MB

     Initial potential from superposition of free atoms

     starting charge      10.9735, renormalised to      11.0000
     Starting wfcs are   13 randomized atomic wfcs +   13 random wfcs
     Checking if some PAW data can be deallocated... 

     total cpu time spent up to now is        0.5 secs

     per-process dynamical memory:    13.2 Mb

     Self-consistent Calculation

     iteration #  1     ecut=    37.00 Ry     beta= 0.70
     Davidson diagonalization with overlap
     ethr =  1.00E-02,  avg # of iterations =  6.9

     Threshold (ethr) on eigenvalues was too large:
     Diagonalizing with lowered threshold

     Davidson diagonalization with overlap
     ethr =  6.72E-05,  avg # of iterations =  3.1

     total cpu time spent up to now is        1.8 secs

     total energy              =    -471.69352676 Ry
     estimated scf accuracy    <       0.00759284 Ry

     iteration #  2     ecut=    37.00 Ry     beta= 0.70
     Davidson diagonalization with overlap
     ethr =  6.90E-05,  avg # of iterations =  1.6

     total cpu time spent up to now is        2.1 secs

     total energy              =    -471.69535966 Ry
     estimated scf accuracy    <       0.00043022 Ry

     iteration #  3     ecut=    37.00 Ry     beta= 0.70
     Davidson diagonalization with overlap
     ethr =  3.91E-06,  avg # of iterations =  2.7

     total cpu time spent up to now is        2.6 secs

     End of self-consistent calculation

          k = 0.0000 0.0000 0.0000 (   847 PWs)   bands (ev):

   -23.0418  -4.7516  -4.7516  -4.7516   8.8447  10.6349  10.6349  18.7801
    18.7801  18.7801  22.9362  22.9362  22.9362  27.0261  27.0261  27.0261
    27.8969  28.6746  28.6746  35.6655  41.0265  41.0265  41.0266  41.7989
    41.7989  41.7989

          k = 0.0000 0.0000 0.1000 (   855 PWs)   bands (ev):

   -23.0176  -4.9874  -4.7317  -4.7317   9.0942  10.7062  11.0089  18.1081
    18.1081  18.8217  22.0317  23.5804  23.5804  25.3167  27.4875  27.4875
    28.3637  29.5440  30.7030  34.9107  38.9828  38.9828  40.2176  41.7903
    42.1224  43.8228

          k = 0.0000 0.0000 0.2000 (   860 PWs)   bands (ev):

   -22.9534  -5.5588  -4.6788  -4.6788   9.6336  10.9038  12.1059  16.9002
    16.9002  18.9338  20.5776  23.3439  24.5957  24.5957  28.6503  28.9320
    28.9320  31.9592  33.5494  33.6405  36.7165  36.9484  36.9484  39.0924
    44.5128  45.0226

          k = 0.0000 0.0000 0.3000 (   856 PWs)   bands (ev):

   -22.8721  -6.1944  -4.6121  -4.6121  10.2576  11.1738  13.4066  15.8418
    15.8418  19.0799  19.8454  21.7710  25.3757  25.3757  28.5993  30.9960
    30.9960  32.3449  33.0312  34.3011  35.5953  35.5953  36.8426  38.1201
    45.1910  45.1913

          k = 0.0000 0.0000 0.4000 (   856 PWs)   bands (ev):

   -22.8047  -6.6656  -4.5573  -4.5573  10.8698  11.4192  13.9072  15.1517
    15.1517  19.2047  20.7364  20.8203  25.9208  25.9208  26.8156  31.5481
    31.6184  32.2143  32.2143  34.2380  36.1086  36.1087  40.1728  40.2333
    43.2504  43.2506

          k = 0.0000 0.0000-0.5000 (   852 PWs)   bands (ev):

   -22.7785  -6.8372  -4.5361  -4.5361  11.1741  11.5209  13.8371  14.9136
    14.9136  19.2542  20.3706  22.6335  24.5163  26.1354  26.1354  31.2702
    31.6536  32.2385  32.2385  33.7719  37.8188  37.8188  40.8909  40.8909
    43.2525  43.3801

          k = 0.0000 0.1000 0.1000 (   861 PWs)   bands (ev):

   -22.9935  -4.9790  -4.9526  -4.7118   9.3506  10.9381  11.2064  17.4009
    18.0045  18.3329  22.5714  22.7318  24.2735  25.3977  26.4738  27.8620
    29.4899  30.4553  31.7786  33.9799  37.2425  39.5033  40.3657  41.4132
    41.9424  42.6744

          k = 0.0000 0.1000 0.2000 (   852 PWs)   bands (ev):

   -22.9295  -5.5346  -4.9081  -4.6592   9.8862  11.1976  12.2044  16.2071
    16.9408  18.3445  21.1369  23.5546  23.8970  25.4124  27.7803  29.1306
    30.1284  32.4694  32.5335  34.3930  35.3433  36.8723  38.2567  40.9473
    41.7033  43.3043

          k = 0.0000 0.1000 0.3000 (   857 PWs)   bands (ev):

   -22.8484  -6.1669  -4.8367  -4.5929  10.4876  11.4787  13.2587  15.5148
    15.9009  18.5061  20.2247  22.4120  24.2669  26.2462  29.6897  30.0492
    30.5025  31.9214  32.9455  34.1488  35.6922  36.9104  37.2937  39.7045
    41.9440  45.1750

          k = 0.0000 0.1000 0.4000 (   847 PWs)   bands (ev):

   -22.7812  -6.6359  -4.7776  -4.5383  11.0840  11.7593  13.1298  15.2169
    15.6452  18.6506  20.8504  21.4836  24.7690  26.8138  27.3872  29.8585
    30.7450  32.5420  33.6885  34.7312  36.5341  36.6574  39.7642  40.9353
    42.5172  42.8610

          k = 0.0000 0.1000-0.5000 (   844 PWs)   bands (ev):

   -22.7551  -6.8069  -4.7547  -4.5172  11.3874  11.9373  12.7937  14.9804
    15.6582  18.7086  21.0358  22.4863  24.5997  25.5339  27.0507  29.5114
    30.5323  32.7861  34.1569  35.6776  37.2183  37.8656  39.6488  40.9359
    41.0890  43.5576

          k = 0.0000 0.2000 0.2000 (   856 PWs)   bands (ev):

   -22.8659  -5.4990  -5.4374  -4.6073  10.3562  11.7983  12.7677  15.1628
    16.8849  17.4041  21.5856  22.2648  24.8146  26.9303  27.0561  29.9338
    30.8929  31.6730  33.0173  33.9776  36.4026  36.4743  38.8053  39.8776
    42.5413  43.4205

          k = 0.0000 0.2000 0.3000 (   854 PWs)   bands (ev):

   -22.7855  -6.0939  -5.3838  -4.5421  10.8210  11.9329  13.4526  15.2346
    16.0569  17.4005  20.6830  22.6726  24.1024  27.8040  28.6723  29.6388
    30.8347  31.6717  31.9668  34.9449  35.8649  37.9833  39.2610  39.9839
    42.2061  44.5382

          k = 0.0000 0.2000 0.4000 (   851 PWs)   bands (ev):

   -22.7188  -6.5569  -5.3159  -4.4884  11.2186  11.7783  13.3975  15.3964
    16.2055  17.5584  20.9025  23.0280  23.5586  27.6332  27.7942  29.1799
    29.2448  32.8717  34.6344  35.2823  36.7960  38.3811  38.8895  40.4383
    41.7821  43.6280

          k = 0.0000 0.2000-0.5000 (   858 PWs)   bands (ev):

   -22.6929  -6.7260  -5.2895  -4.4677  11.3923  11.6638  13.3835  15.1646
    16.4218  17.6264  21.9186  22.6411  24.7848  24.8137  27.6357  28.7789
    29.2439  35.0626  36.1416  36.4043  36.6962  37.0069  37.9916  39.6548
    41.7425  43.7533

          k = 0.0000 0.3000 0.3000 (   856 PWs)   bands (ev):

   -22.7059  -6.0266  -5.9710  -4.4782  10.8375  11.7027  14.9384  15.4360
    16.1412  16.5236  20.6852  22.0063  25.2150  27.2772  28.7007  29.7677
    31.0986  31.1518  32.6477  33.2675  37.7961  38.0337  41.0518  41.5220
    42.5173  43.8931

          k = 0.0000 0.3000 0.4000 (   857 PWs)   bands (ev):

   -22.6399  -6.4564  -5.9203  -4.4257  10.4270  11.8766  15.3277  15.6375
    16.5552  16.6729  20.6869  22.6402  24.8499  26.4503  27.3850  29.0174
    31.5342  31.9500  32.9753  35.1092  38.2730  38.6557  40.4732  40.9363
    43.1220  43.8788

          k = 0.0000 0.3000-0.5000 (   852 PWs)   bands (ev):

   -22.6143  -6.6228  -5.8904  -4.4054  10.2355  12.0003  15.4092  15.4146
    16.6269  17.0355  21.1094  24.1592  24.5852  24.8312  26.1421  28.4192
    32.1003  32.6736  34.8463  35.4587  38.1559  38.1841  38.5471  42.2816
    42.9299  43.1376

          k = 0.0000 0.4000 0.4000 (   850 PWs)   bands (ev):

   -22.5745  -6.3817  -6.3619  -4.3741   9.7326  12.1786  15.8083  15.9358
    16.9937  17.0682  20.5855  23.0850  24.6726  25.4986  27.0813  29.2568
    30.4240  31.7348  34.8690  35.6734  36.8177  40.9832  41.7011  41.8172
    41.8633  42.2410

          k = 0.0000 0.4000-0.5000 (   864 PWs)   bands (ev):

   -22.5491  -6.5367  -6.3391  -4.3541   9.4865  12.3132  15.6395  15.9627
    17.1823  17.5186  20.9026  24.2701  24.7320  24.8611  25.1609  29.0710
    30.1368  34.0396  34.3595  35.3513  38.2964  39.2137  40.1149  41.8859
    42.5832  44.0737

          k = 0.0000-0.5000-0.5000 (   872 PWs)   bands (ev):

   -22.5239  -6.5031  -6.5031  -4.3344   9.2277  12.4469  15.7320  15.7320
    17.7188  17.7188  21.3690  23.9500  24.8148  25.0507  25.0507  27.0938
    31.6312  33.7544  33.7544  38.3341  38.3642  38.3995  39.5440  39.5440
    44.4316  44.4322

          k = 0.1000 0.1000 0.1000 (   847 PWs)   bands (ev):

   -22.9694  -4.9701  -4.9316  -4.9316   9.6223  11.2750  11.2750  17.2347
    17.5944  17.5944  23.2825  23.3790  23.3790  25.9869  25.9869  27.4307
    30.4378  32.0387  32.0387  32.8613  37.7754  39.2818  39.2818  40.6824
    40.6824  43.5081

          k = 0.1000 0.1000 0.2000 (   848 PWs)   bands (ev):

   -22.9056  -5.5106  -4.8984  -4.8758  10.1696  11.4661  12.2900  16.2414
    16.2992  17.6691  21.8606  24.1210  24.1663  24.9094  27.6337  28.4961
    31.0068  31.5405  33.5516  34.6638  36.3965  37.0844  37.3277  40.8404
    41.3897  42.9449

          k = 0.1000 0.1000 0.3000 (   849 PWs)   bands (ev):

   -22.8248  -6.1396  -4.8267  -4.8056  10.7620  11.7337  13.1898  15.1642
    15.9113  17.8609  20.8362  22.8565  24.7120  25.7194  28.9129  30.5242
    30.5669  31.1117  33.4866  35.1647  35.5797  36.8655  37.7348  41.0480
    41.2730  43.2858

          k = 0.1000 0.1000 0.4000 (   854 PWs)   bands (ev):

   -22.7577  -6.6065  -4.7673  -4.7477  11.3881  11.9906  12.9089  14.4020
    16.5480  18.0363  21.1912  21.9089  25.1086  26.3042  27.7635  28.1937
    32.2816  32.6761  33.4027  35.0944  35.6590  38.2010  39.6394  41.1847
    41.9639  42.5350

          k = 0.1000 0.1000-0.5000 (   862 PWs)   bands (ev):

   -22.7317  -6.7768  -4.7443  -4.7254  11.8394  12.1052  12.4696  14.1266
    16.7371  18.1098  21.5733  22.5507  24.6392  26.2359  26.5282  27.7391
    32.5085  32.6497  33.8941  37.1552  37.2470  37.2610  39.8394  40.0698
    40.1275  43.3962

          k = 0.1000 0.2000 0.2000 (   855 PWs)   bands (ev):

   -22.8422  -5.4752  -5.4140  -4.8311  10.6669  12.0455  12.8146  15.2280
    16.3401  16.6028  22.6324  22.9752  24.9938  26.1854  27.0978  29.0680
    29.5381  33.0370  33.9888  35.3470  36.3046  36.8052  38.7159  39.0730
    40.4873  43.0319

          k = 0.1000 0.2000 0.3000 (   854 PWs)   bands (ev):

   -22.7620  -6.0671  -5.3609  -4.7614  11.0881  12.1976  13.4705  14.7679
    16.0783  16.7216  21.5786  23.4706  24.2927  26.7684  28.0555  29.4535
    31.0040  31.5489  32.8524  35.7762  36.4239  37.7142  38.6640  40.3557
    42.3198  43.0962

          k = 0.1000 0.2000 0.4000 (   859 PWs)   bands (ev):

   -22.6955  -6.5282  -5.2935  -4.7039  11.3581  12.1710  13.4347  14.2015
    16.9150  17.2881  21.4610  23.4477  23.9957  26.1897  27.8864  28.5241
    30.8873  33.2306  33.7500  36.1937  36.5607  37.3109  40.0045  40.8541
    41.7252  42.9361

          k = 0.1000 0.2000-0.5000 (   860 PWs)   bands (ev):

   -22.6697  -6.6966  -5.2673  -4.6816  11.4110  12.1892  13.4301  13.9263
    17.0100  17.7372  22.3796  23.0026  24.4807  25.3492  26.3038  28.5358
    30.7657  35.0297  35.7145  36.5636  36.6582  37.1220  37.6971  39.8580
    41.5013  43.0232

          k = 0.1000 0.3000 0.3000 (   861 PWs)   bands (ev):

   -22.6826  -6.0002  -5.9456  -4.6933  10.9460  12.1379  14.6343  14.7634
    16.1020  16.4995  21.7514  22.5919  24.8911  26.6292  28.7964  30.2357
    31.0942  31.3470  31.9592  33.5696  38.6057  38.8723  40.1938  41.5918
    42.0282  42.1248

          k = 0.1000 0.3000 0.4000 (   856 PWs)   bands (ev):

   -22.6168  -6.4286  -5.8950  -4.6371  10.5081  12.3653  14.3975  14.8760
    16.4480  17.7906  21.4808  22.9841  24.1796  26.1542  27.9990  29.9602
    31.0745  31.9000  33.0081  34.4563  38.4746  39.2785  39.6288  41.9260
    42.3769  43.1482

          k = 0.1000 0.3000-0.5000 (   850 PWs)   bands (ev):

   -22.5913  -6.5944  -5.8654  -4.6154  10.3180  12.5173  14.1394  14.9506
    16.5573  18.4264  21.8133  23.4374  24.4404  24.8904  26.5762  29.6898
    31.2574  32.7914  34.9128  35.5715  37.1949  37.6413  39.5525  41.2125
    43.0261  43.6538

          k = 0.1000 0.4000 0.4000 (   849 PWs)   bands (ev):

   -22.5516  -6.3545  -6.3350  -4.5820   9.8272  12.6845  14.6127  14.6785
    17.8898  18.2588  21.2578  22.6124  23.8497  26.9388  27.1965  29.4822
    30.7930  31.8174  34.2748  34.9687  36.8948  40.8414  41.1127  41.3555
    42.8304  42.8384

          k = 0.1000 0.4000-0.5000 (   854 PWs)   bands (ev):

   -22.5263  -6.5091  -6.3123  -4.5608   9.5844  12.8459  14.3985  14.7530
    18.1919  18.9087  21.3424  22.4225  24.9462  25.0939  26.8933  29.0497
    30.5757  34.1075  34.4855  34.7107  37.8055  38.2473  40.2214  41.4964
    43.0305  43.0854

          k = 0.1000-0.5000-0.5000 (   856 PWs)   bands (ev):

   -22.5011  -6.4758  -6.4758  -4.5397   9.3290  13.0046  14.5131  14.5131
    19.1042  19.1042  21.4007  22.0224  25.2783  25.2783  26.7531  27.0999
    31.9741  33.8266  33.8266  37.8530  37.8822  38.5158  38.5819  38.5819
    43.7727  44.0094

          k = 0.2000 0.2000 0.2000 (   844 PWs)   bands (ev):

   -22.7793  -5.4363  -5.3522  -5.3522  11.1283  12.9321  12.9321  15.2774
    15.2774  15.7118  23.6533  24.4932  24.4932  26.7362  26.7362  27.9146
    28.6353  34.9420  35.0059  35.0059  37.4822  37.7917  37.7917  39.0484
    39.0484  41.1413

          k = 0.2000 0.2000 0.3000 (   856 PWs)   bands (ev):

   -22.6997  -5.9963  -5.3230  -5.2741  11.3209  13.0260  13.4776  14.2319
    15.5899  16.3602  22.8208  24.1887  25.0437  26.6128  26.7230  29.4397
    29.9653  31.8757  34.8553  35.3923  36.5479  38.1971  39.3021  40.4271
    41.1626  41.7134

          k = 0.2000 0.2000 0.4000 (   867 PWs)   bands (ev):

   -22.6337  -6.4518  -5.2558  -5.2096  11.3011  12.9043  13.3656  13.7858
    15.9483  18.2279  22.2576  23.7666  24.3897  26.1786  27.4128  28.4515
    32.1735  32.4560  34.3548  35.1657  36.1407  38.5998  39.6965  40.8198
    40.9196  42.9664

          k = 0.2000 0.2000-0.5000 (   852 PWs)   bands (ev):

   -22.6081  -6.6183  -5.2295  -5.1845  11.2525  12.7686  13.3311  13.7365
    16.0703  19.1921  22.8470  23.0966  24.1144  26.0427  26.7432  27.6716
    33.2478  33.3935  35.1788  36.0619  36.7061  37.1930  38.7204  38.8094
    40.4161  43.7327

          k = 0.2000 0.3000 0.3000 (   861 PWs)   bands (ev):

   -22.6209  -5.9304  -5.8780  -5.2197  11.1082  12.8775  13.6414  14.4116
    15.8952  16.9388  22.4141  23.8949  25.5940  26.3541  28.8573  28.9942
    30.5850  31.4670  33.1869  34.1639  38.1928  38.8977  39.7963  41.1730
    41.4320  41.8435

          k = 0.2000 0.3000 0.4000 (   862 PWs)   bands (ev):

   -22.5555  -6.3546  -5.8282  -5.1557  10.7073  12.7093  13.4145  14.4661
    16.5215  18.8404  21.6499  23.3510  25.3811  26.3652  28.3699  29.5896
    31.4913  32.3945  33.0824  33.7388  37.5538  38.6551  39.7615  40.9961
    41.6861  42.4577

          k = 0.2000 0.3000-0.5000 (   858 PWs)   bands (ev):

   -22.5302  -6.5186  -5.7993  -5.1308  10.5309  12.6070  13.3715  14.5219
    16.6634  20.1111  21.6178  22.8813  25.3790  26.0836  26.9022  29.8775
    32.0795  32.5658  35.0824  35.3805  36.1855  36.5610  39.5080  39.5273
    41.6509  43.9338

          k = 0.2000 0.4000 0.4000 (   854 PWs)   bands (ev):

   -22.4908  -6.2822  -6.2636  -5.0932  10.0932  12.8323  13.1478  14.4996
    18.5163  19.5332  20.7318  23.0061  25.1703  27.5746  27.8266  29.4952
    32.0419  32.4953  33.1817  33.6901  37.0949  38.8815  39.8626  40.3447
    41.4138  42.1647

          k = 0.2000 0.4000-0.5000 (   854 PWs)   bands (ev):

   -22.4657  -6.4355  -6.2413  -5.0689   9.8624  12.8238  13.0929  14.5372
    19.0221  20.2375  20.9589  22.4564  25.7499  25.9065  28.2618  28.8930
    32.0650  33.4870  34.3041  34.9287  36.6207  36.7292  39.2958  40.4770
    40.8893  41.5200

          k = 0.2000-0.5000-0.5000 (   856 PWs)   bands (ev):

   -22.4406  -6.4031  -6.4031  -5.0449   9.6182  12.9420  12.9420  14.5611
    19.9465  21.0405  21.0405  21.4853  26.0582  26.0582  27.0427  28.6118
    33.2220  34.0262  34.0262  36.7184  36.8711  36.9397  36.9397  38.8523
    39.8796  42.3819

          k = 0.3000 0.3000 0.3000 (   868 PWs)   bands (ev):

   -22.5428  -5.8618  -5.7924  -5.7924  11.0873  12.5872  12.5872  15.9806
    15.9806  17.6296  21.1281  26.0228  26.0228  27.1160  28.7976  28.7976
    30.5974  31.6525  31.6525  35.8976  37.2610  38.0793  38.0793  41.8283
    41.8283  42.8776

          k = 0.3000 0.3000 0.4000 (   853 PWs)   bands (ev):

   -22.4781  -6.2605  -5.7630  -5.7213  10.8025  11.8747  12.5496  16.1035
    17.0110  19.5378  20.1596  24.8947  26.9583  27.2427  28.7762  28.7949
    31.4711  31.9296  32.4969  35.4340  36.6556  36.8919  39.2473  40.0284
    40.9240  42.7719

          k = 0.3000 0.3000-0.5000 (   858 PWs)   bands (ev):

   -22.4530  -6.4223  -5.7348  -5.6937  10.6473  11.6264  12.6079  16.1567
    17.2272  19.7187  21.6456  23.4094  26.9708  27.3115  27.6922  29.0110
    31.6471  34.1079  34.2486  35.1556  35.5329  36.6168  37.2061  38.7604
    41.6821  43.7836

          k = 0.3000 0.4000 0.4000 (   866 PWs)   bands (ev):

   -22.4139  -6.1904  -6.1731  -5.6711  10.4607  11.7481  11.9360  16.6540
    18.8434  19.0291  20.4742  24.9039  27.2088  27.8496  28.3247  29.1119
    32.2400  32.2585  32.8286  34.9308  36.2205  37.3295  38.3372  38.9138
    40.7380  41.4943

          k = 0.3000 0.4000-0.5000 (   874 PWs)   bands (ev):

   -22.3891  -6.3421  -6.1513  -5.6440  10.2596  11.5950  11.9425  16.7498
    18.6269  19.4733  22.2960  23.3850  27.2246  27.4470  28.3783  28.9380
    32.5483  33.7661  34.5404  35.2389  35.5503  36.0846  36.4348  39.0012
    40.2903  41.0015

          k = 0.3000-0.5000-0.5000 (   876 PWs)   bands (ev):

   -22.3643  -6.3109  -6.3109  -5.6172  10.0406  11.7060  11.7060  16.8554
    18.2122  21.5938  22.5149  22.5149  26.6237  27.5633  27.5633  29.6800
    34.2932  34.2932  35.3643  35.4373  35.5340  35.5340  35.8917  36.5054
    39.3606  41.3591

          k = 0.4000 0.4000 0.4000 (   877 PWs)   bands (ev):

   -22.3503  -6.1209  -6.0978  -6.0978  10.6785  11.1670  11.1670  17.8699
    19.0389  19.0389  21.3473  26.0898  26.0898  28.8550  29.1810  29.1810
    32.4631  32.4631  33.1439  34.7147  36.5704  36.7439  36.7439  38.0804
    41.0478  41.0479

          k = 0.4000 0.4000-0.5000 (   874 PWs)   bands (ev):

   -22.3256  -6.2644  -6.0834  -6.0685  10.5727  10.9036  11.1855  17.4369
    19.1082  20.0433  23.0742  23.7559  26.4478  29.1175  29.2244  29.3871
    32.7449  34.2963  34.3930  34.6609  34.8999  35.0555  37.1375  37.3538
    40.7235  41.3157

          k = 0.4000-0.5000-0.5000 (   876 PWs)   bands (ev):

   -22.3010  -6.2342  -6.2342  -6.0468  10.4651  10.9251  10.9251  16.9910
    19.5735  21.6852  23.3197  23.3197  25.2910  29.4298  29.4299  30.2047
    34.0057  34.3654  34.3654  34.7404  34.8820  34.8820  35.2224  37.4611
    39.9039  41.7010

          k =-0.5000-0.5000-0.5000 (   840 PWs)   bands (ev):

   -22.2764  -6.2042  -6.2042  -6.2042  10.6582  10.6582  10.6582  16.5311
    21.7212  21.7212  23.5709  23.5709  23.5709  30.3729  30.3729  30.3729
    33.5237  34.2146  34.2146  34.2146  34.9871  34.9871  34.9871  37.9707
    40.1689  40.1690

     the Fermi energy is    11.9781 ev

!    total energy              =    -471.69542579 Ry
     total all-electron energy =    -17721.220155 Ry
     estimated scf accuracy    <       0.00001287 Ry
     smearing contrib. (-TS)   =      -0.00029485 Ry
     internal energy E=F+TS    =    -471.69513095 Ry

     The total energy is F=E-TS. E is the sum of the following terms:
     one-electron contribution =      -4.38589072 Ry
     hartree contribution      =       8.12228617 Ry
     xc contribution           =     -73.24037267 Ry
     ewald contribution        =     -56.41593463 Ry
     one-center paw contrib.   =    -345.77521909 Ry

     convergence has been achieved in   3 iterations

     Writing all to output data dir ./work/POSCAR.save/

     init_run     :      0.30s CPU      0.33s WALL (       1 calls)
     electrons    :      1.55s CPU      2.06s WALL (       1 calls)

     Called by init_run:
     wfcinit      :      0.09s CPU      0.10s WALL (       1 calls)
     potinit      :      0.16s CPU      0.17s WALL (       1 calls)
     hinit0       :      0.05s CPU      0.06s WALL (       1 calls)

     Called by electrons:
     c_bands      :      1.32s CPU      1.76s WALL (       4 calls)
     sum_band     :      0.15s CPU      0.15s WALL (       4 calls)
     v_of_rho     :      0.00s CPU      0.00s WALL (       4 calls)
     newd         :      0.01s CPU      0.01s WALL (       4 calls)
     PAW_pot      :      0.10s CPU      0.14s WALL (       4 calls)
     mix_rho      :      0.00s CPU      0.00s WALL (       4 calls)

     Called by c_bands:
     init_us_2    :      0.01s CPU      0.01s WALL (     504 calls)
     init_us_2:cp :      0.01s CPU      0.01s WALL (     504 calls)
     cegterg      :      1.28s CPU      1.33s WALL (     224 calls)

     Called by *egterg:
     cdiaghg      :      0.41s CPU      0.43s WALL (     973 calls)
     h_psi        :      0.76s CPU      0.79s WALL (    1085 calls)
     s_psi        :      0.01s CPU      0.01s WALL (    1085 calls)
     g_psi        :      0.00s CPU      0.01s WALL (     805 calls)

     Called by h_psi:
     h_psi:calbec :      0.03s CPU      0.04s WALL (    1085 calls)
     vloc_psi     :      0.71s CPU      0.74s WALL (    1085 calls)
     add_vuspsi   :      0.01s CPU      0.01s WALL (    1085 calls)

     General routines
     calbec       :      0.04s CPU      0.04s WALL (    1309 calls)
     fft          :      0.04s CPU      0.04s WALL (      51 calls)
     ffts         :      0.13s CPU      0.13s WALL (       8 calls)
     fftw         :      0.77s CPU      0.80s WALL (   40040 calls)
     interpolate  :      0.13s CPU      0.13s WALL (       4 calls)

     Parallel routines

     PWSCF        :      1.97s CPU      3.09s WALL


   This run was terminated on:  22:39:14  15May2024            

=------------------------------------------------------------------------------=
   JOB DONE.
=------------------------------------------------------------------------------=
