
     Program PWSCF v.7.1 starts on 15May2024 at 22:39:15 

     This program is part of the open-source Quantum ESPRESSO suite
     for quantum simulation of materials; please cite
         "P. Giannozzi et al., J. Phys.:Condens. Matter 21 395502 (2009);
         "P. Giannozzi et al., J. Phys.:Condens. Matter 29 465901 (2017);
         "P. Giannozzi et al., J. Chem. Phys. 152 154105 (2020);
          URL http://www.quantum-espresso.org", 
     in publications or presentations arising from this work. More details at
     http://www.quantum-espresso.org/quote

     Parallel version (MPI & OpenMP), running on      10 processor cores
     Number of MPI processes:                10
     Threads/MPI process:                     1

     MPI processes distributed on     1 nodes
     14550 MiB available memory on the printing compute node when the environment starts

     Waiting for input...
     Reading input from standard input

     Current dimensions of program PWSCF are:
     Max number of different atomic species (ntypx) = 10
     Max number of k-points (npk) =  40000
     Max angular momentum in pseudopotentials (lmaxx) =  4

     Atomic positions and unit cell read from directory:
     ./work/POSCAR.save/

     file Ce.pbe-spdn-kjpaw_psl.1.0.0.UPF: wavefunction(s)  5D renormalized
     Message from routine setup:
     using ibrav=0 with symmetry is DISCOURAGED, use correct ibrav instead

     R & G space division:  proc/nbgrp/npool/nimage =      10
     Subspace diagonalization in iterative solution of the eigenvalue problem:
     a serial algorithm will be used


     Parallelization info
     --------------------
     sticks:   dense  smooth     PW     G-vecs:    dense   smooth      PW
     Min          51      43     14                  904      685     129
     Max          52      44     16                  906      688     132
     Sum         517     437    145                 9045     6859    1309

     Using Slab Decomposition



     bravais-lattice index     =            0
     lattice parameter (alat)  =       6.0854  a.u.
     unit-cell volume          =     225.3541 (a.u.)^3
     number of atoms/cell      =            1
     number of atomic types    =            1
     number of electrons       =        11.00
     number of Kohn-Sham states=           26
     kinetic-energy cutoff     =      37.0000  Ry
     charge density cutoff     =     179.0000  Ry
     Exchange-correlation= SLA  PW   PBX  PBC
                           (   1   4   3   4   0   0   0)

     celldm(1)=   6.085391  celldm(2)=   0.000000  celldm(3)=   0.000000
     celldm(4)=   0.000000  celldm(5)=   0.000000  celldm(6)=   0.000000

     crystal axes: (cart. coord. in units of alat)
               a(1) = (   1.000000   0.000000   0.000000 )  
               a(2) = (   0.000000   1.000000   0.000000 )  
               a(3) = (   0.000000   0.000000   1.000000 )  

     reciprocal axes: (cart. coord. in units 2 pi/alat)
               b(1) = (  1.000000  0.000000  0.000000 )  
               b(2) = (  0.000000  1.000000  0.000000 )  
               b(3) = (  0.000000  0.000000  1.000000 )  


     PseudoPot. # 1 for Ce read from file:
     ./../../../../pseudo/psl100_PBE/Ce.pbe-spdn-kjpaw_psl.1.0.0.UPF
     MD5 check sum: 1a25380276e46fcecd5a173acdad072c
     Pseudo is Projector augmented-wave + core cor, Zval = 11.0
     Generated using 'atomic' code by A. Dal Corso  v.7.2
     Shape of augmentation charge: PSQ
     Using radial grid of 1255 points,  6 beta functions with: 
                l(1) =   0
                l(2) =   0
                l(3) =   1
                l(4) =   1
                l(5) =   2
                l(6) =   2
     Q(r) pseudized with 0 coefficients 


     atomic species   valence    mass     pseudopotential
        Ce            11.00   140.11600     Ce( 1.00)

     48 Sym. Ops., with inversion, found



   Cartesian axes

     site n.     atom                  positions (alat units)
         1           Ce  tau(   1) = (   0.0000000   0.0000000   0.0000000  )

     number of k points=    91  Methfessel-Paxton smearing, width (Ry)=  0.0200
                       cart. coord. in units 2pi/alat
        k(    1) = (   0.0000000   0.5000000   0.5000000), wk =   0.0219780
        k(    2) = (   0.0500000   0.5000000   0.5000000), wk =   0.0219780
        k(    3) = (   0.1000000   0.5000000   0.5000000), wk =   0.0219780
        k(    4) = (   0.1500000   0.5000000   0.5000000), wk =   0.0219780
        k(    5) = (   0.2000000   0.5000000   0.5000000), wk =   0.0219780
        k(    6) = (   0.2500000   0.5000000   0.5000000), wk =   0.0219780
        k(    7) = (   0.3000000   0.5000000   0.5000000), wk =   0.0219780
        k(    8) = (   0.3500000   0.5000000   0.5000000), wk =   0.0219780
        k(    9) = (   0.4000000   0.5000000   0.5000000), wk =   0.0219780
        k(   10) = (   0.4500000   0.5000000   0.5000000), wk =   0.0219780
        k(   11) = (   0.5000000   0.5000000   0.5000000), wk =   0.0219780
        k(   12) = (   0.4750000   0.4750000   0.4750000), wk =   0.0219780
        k(   13) = (   0.4500000   0.4500000   0.4500000), wk =   0.0219780
        k(   14) = (   0.4250000   0.4250000   0.4250000), wk =   0.0219780
        k(   15) = (   0.4000000   0.4000000   0.4000000), wk =   0.0219780
        k(   16) = (   0.3750000   0.3750000   0.3750000), wk =   0.0219780
        k(   17) = (   0.3500000   0.3500000   0.3500000), wk =   0.0219780
        k(   18) = (   0.3250000   0.3250000   0.3250000), wk =   0.0219780
        k(   19) = (   0.3000000   0.3000000   0.3000000), wk =   0.0219780
        k(   20) = (   0.2750000   0.2750000   0.2750000), wk =   0.0219780
        k(   21) = (   0.2500000   0.2500000   0.2500000), wk =   0.0219780
        k(   22) = (   0.2250000   0.2250000   0.2250000), wk =   0.0219780
        k(   23) = (   0.2000000   0.2000000   0.2000000), wk =   0.0219780
        k(   24) = (   0.1750000   0.1750000   0.1750000), wk =   0.0219780
        k(   25) = (   0.1500000   0.1500000   0.1500000), wk =   0.0219780
        k(   26) = (   0.1250000   0.1250000   0.1250000), wk =   0.0219780
        k(   27) = (   0.1000000   0.1000000   0.1000000), wk =   0.0219780
        k(   28) = (   0.0750000   0.0750000   0.0750000), wk =   0.0219780
        k(   29) = (   0.0500000   0.0500000   0.0500000), wk =   0.0219780
        k(   30) = (   0.0250000   0.0250000   0.0250000), wk =   0.0219780
        k(   31) = (   0.0000000   0.0000000   0.0000000), wk =   0.0219780
        k(   32) = (   0.0500000   0.0000000   0.0000000), wk =   0.0219780
        k(   33) = (   0.1000000   0.0000000   0.0000000), wk =   0.0219780
        k(   34) = (   0.1500000   0.0000000   0.0000000), wk =   0.0219780
        k(   35) = (   0.2000000   0.0000000   0.0000000), wk =   0.0219780
        k(   36) = (   0.2500000   0.0000000   0.0000000), wk =   0.0219780
        k(   37) = (   0.3000000   0.0000000   0.0000000), wk =   0.0219780
        k(   38) = (   0.3500000   0.0000000   0.0000000), wk =   0.0219780
        k(   39) = (   0.4000000   0.0000000   0.0000000), wk =   0.0219780
        k(   40) = (   0.4500000   0.0000000   0.0000000), wk =   0.0219780
        k(   41) = (   0.5000000   0.0000000   0.0000000), wk =   0.0219780
        k(   42) = (   0.5000000   0.0500000   0.0000000), wk =   0.0219780
        k(   43) = (   0.5000000   0.1000000   0.0000000), wk =   0.0219780
        k(   44) = (   0.5000000   0.1500000   0.0000000), wk =   0.0219780
        k(   45) = (   0.5000000   0.2000000   0.0000000), wk =   0.0219780
        k(   46) = (   0.5000000   0.2500000   0.0000000), wk =   0.0219780
        k(   47) = (   0.5000000   0.3000000   0.0000000), wk =   0.0219780
        k(   48) = (   0.5000000   0.3500000   0.0000000), wk =   0.0219780
        k(   49) = (   0.5000000   0.4000000   0.0000000), wk =   0.0219780
        k(   50) = (   0.5000000   0.4500000   0.0000000), wk =   0.0219780
        k(   51) = (   0.5000000   0.5000000   0.0000000), wk =   0.0219780
        k(   52) = (   0.4750000   0.4750000   0.0000000), wk =   0.0219780
        k(   53) = (   0.4500000   0.4500000   0.0000000), wk =   0.0219780
        k(   54) = (   0.4250000   0.4250000   0.0000000), wk =   0.0219780
        k(   55) = (   0.4000000   0.4000000   0.0000000), wk =   0.0219780
        k(   56) = (   0.3750000   0.3750000   0.0000000), wk =   0.0219780
        k(   57) = (   0.3500000   0.3500000   0.0000000), wk =   0.0219780
        k(   58) = (   0.3250000   0.3250000   0.0000000), wk =   0.0219780
        k(   59) = (   0.3000000   0.3000000   0.0000000), wk =   0.0219780
        k(   60) = (   0.2750000   0.2750000   0.0000000), wk =   0.0219780
        k(   61) = (   0.2500000   0.2500000   0.0000000), wk =   0.0219780
        k(   62) = (   0.2250000   0.2250000   0.0000000), wk =   0.0219780
        k(   63) = (   0.2000000   0.2000000   0.0000000), wk =   0.0219780
        k(   64) = (   0.1750000   0.1750000   0.0000000), wk =   0.0219780
        k(   65) = (   0.1500000   0.1500000   0.0000000), wk =   0.0219780
        k(   66) = (   0.1250000   0.1250000   0.0000000), wk =   0.0219780
        k(   67) = (   0.1000000   0.1000000   0.0000000), wk =   0.0219780
        k(   68) = (   0.0750000   0.0750000   0.0000000), wk =   0.0219780
        k(   69) = (   0.0500000   0.0500000   0.0000000), wk =   0.0219780
        k(   70) = (   0.0250000   0.0250000   0.0000000), wk =   0.0219780
        k(   71) = (   0.0000000   0.0000000   0.0000000), wk =   0.0219780
        k(   72) = (   0.0250000   0.0250000   0.0250000), wk =   0.0219780
        k(   73) = (   0.0500000   0.0500000   0.0500000), wk =   0.0219780
        k(   74) = (   0.0750000   0.0750000   0.0750000), wk =   0.0219780
        k(   75) = (   0.1000000   0.1000000   0.1000000), wk =   0.0219780
        k(   76) = (   0.1250000   0.1250000   0.1250000), wk =   0.0219780
        k(   77) = (   0.1500000   0.1500000   0.1500000), wk =   0.0219780
        k(   78) = (   0.1750000   0.1750000   0.1750000), wk =   0.0219780
        k(   79) = (   0.2000000   0.2000000   0.2000000), wk =   0.0219780
        k(   80) = (   0.2250000   0.2250000   0.2250000), wk =   0.0219780
        k(   81) = (   0.2500000   0.2500000   0.2500000), wk =   0.0219780
        k(   82) = (   0.2750000   0.2750000   0.2750000), wk =   0.0219780
        k(   83) = (   0.3000000   0.3000000   0.3000000), wk =   0.0219780
        k(   84) = (   0.3250000   0.3250000   0.3250000), wk =   0.0219780
        k(   85) = (   0.3500000   0.3500000   0.3500000), wk =   0.0219780
        k(   86) = (   0.3750000   0.3750000   0.3750000), wk =   0.0219780
        k(   87) = (   0.4000000   0.4000000   0.4000000), wk =   0.0219780
        k(   88) = (   0.4250000   0.4250000   0.4250000), wk =   0.0219780
        k(   89) = (   0.4500000   0.4500000   0.4500000), wk =   0.0219780
        k(   90) = (   0.4750000   0.4750000   0.4750000), wk =   0.0219780
        k(   91) = (   0.5000000   0.5000000   0.5000000), wk =   0.0219780

     Dense  grid:     9045 G-vectors     FFT dimensions: (  25,  25,  25)

     Smooth grid:     6859 G-vectors     FFT dimensions: (  24,  24,  24)

     Estimated max dynamical RAM per process >       3.97 MB

     Estimated total dynamical RAM >      39.68 MB

     The potential is recalculated from file :
     ./work/POSCAR.save/charge-density

     Starting wfcs are   13 randomized atomic wfcs +   13 random wfcs
     Checking if some PAW data can be deallocated... 

     Band Structure Calculation
     Davidson diagonalization with overlap

     ethr =  6.64E-07,  avg # of iterations = 17.5

     total cpu time spent up to now is        3.3 secs

     End of band structure calculation

          k = 0.0000 0.5000 0.5000 (   872 PWs)   bands (ev):

   -22.5274  -6.5045  -6.5045  -4.3365   9.2285  12.4485  15.7325  15.7325
    17.7202  17.7202  21.3682  23.9456  24.8160  25.0528  25.0528  27.0949
    31.6309  33.7555  33.7555  38.3354  38.3635  38.4033  39.5455  39.5455
    44.4305  44.4305

          k = 0.0500 0.5000 0.5000 (   864 PWs)   bands (ev):

   -22.5216  -6.4975  -6.4975  -4.3898   9.2540  12.5900  15.3048  15.3048
    18.1916  18.1916  21.3763  23.1247  25.1082  25.1082  25.6442  27.0975
    31.7126  33.7737  33.7737  38.2084  38.2326  38.4325  39.2606  39.2606
    44.3458  44.7848

          k = 0.1000 0.5000 0.5000 (   856 PWs)   bands (ev):

   -22.5046  -6.4771  -6.4771  -4.5418   9.3298  13.0061  14.5139  14.5139
    19.1053  19.1053  21.4000  22.0206  25.2803  25.2803  26.7515  27.1010
    31.9741  33.8276  33.8276  37.8543  37.8819  38.5196  38.5830  38.5830
    43.7693  44.0101

          k = 0.1500 0.5000 0.5000 (   856 PWs)   bands (ev):

   -22.4780  -6.4452  -6.4452  -4.7706   9.4531  13.6741  13.6996  13.6996
    20.0964  20.0964  20.9495  21.4370  25.5878  25.5878  27.0919  27.7710
    32.4611  33.9139  33.9139  37.3357  37.4000  37.7640  37.7640  38.6622
    41.9016  43.0695

          k = 0.2000 0.5000 0.5000 (   856 PWs)   bands (ev):

   -22.4442  -6.4045  -6.4045  -5.0468   9.6191  12.9431  12.9431  14.5623
    19.9450  21.0416  21.0416  21.4845  26.0597  26.0597  27.0438  28.6093
    33.2222  34.0272  34.0272  36.7195  36.8713  36.9404  36.9404  38.8562
    39.8808  42.3790

          k = 0.2500 0.5000 0.5000 (   864 PWs)   bands (ev):

   -22.4063  -6.3587  -6.3587  -5.3391   9.8195  12.2736  12.2736  15.6353
    19.0260  21.5381  21.8634  21.8634  26.7215  26.7215  26.9112  29.2338
    34.1589  34.1589  34.2480  36.0556  36.1813  36.1813  36.3552  38.0444
    39.0945  41.7798

          k = 0.3000 0.5000 0.5000 (   876 PWs)   bands (ev):

   -22.3679  -6.3123  -6.3123  -5.6188  10.0417  11.7073  11.7073  16.8563
    18.2108  21.5930  22.5166  22.5166  26.6248  27.5636  27.5636  29.6773
    34.2943  34.2943  35.3650  35.4368  35.5347  35.5347  35.8922  36.5072
    39.3648  41.3569

          k = 0.3500 0.5000 0.5000 (   876 PWs)   bands (ev):

   -22.3328  -6.2698  -6.2698  -5.8615  10.2664  11.2554  11.2554  17.5221
    18.1860  21.6435  22.9965  22.9965  26.1011  28.5129  28.5129  29.9894
    34.3967  34.3967  34.6425  35.0620  35.0620  35.4107  35.5089  36.5984
    39.6470  41.2534

          k = 0.4000 0.5000 0.5000 (   876 PWs)   bands (ev):

   -22.3046  -6.2356  -6.2356  -6.0483  10.4664  10.9265  10.9265  16.9894
    19.5738  21.6843  23.3218  23.3218  25.2922  29.4285  29.4285  30.2021
    34.0068  34.3666  34.3666  34.7421  34.8827  34.8827  35.2231  37.4583
    39.9084  41.7018

          k = 0.4500 0.5000 0.5000 (   876 PWs)   bands (ev):

   -22.2864  -6.2134  -6.2134  -6.1657  10.6079  10.7266  10.7266  16.6478
    20.9186  21.7109  23.5110  23.5110  24.2730  30.1134  30.1134  30.3281
    33.6355  34.2563  34.2563  34.3520  34.9374  34.9374  35.0470  37.8660
    40.1012  40.5989

          k = 0.5000 0.5000 0.5000 (   840 PWs)   bands (ev):

   -22.2801  -6.2056  -6.2056  -6.2056  10.6596  10.6596  10.6596  16.5294
    21.7203  21.7203  23.5732  23.5732  23.5732  30.3703  30.3703  30.3703
    33.5251  34.2159  34.2159  34.2159  34.9879  34.9879  34.9879  37.9667
    40.1737  40.1737

          k = 0.4750 0.4750 0.4750 (   870 PWs)   bands (ev):

   -22.2849  -6.2006  -6.1990  -6.1990  10.6566  10.6917  10.6917  16.6187
    21.3634  21.3634  23.4016  23.9294  23.9294  30.2136  30.2454  30.2454
    33.6067  34.1236  34.1236  34.4958  34.8201  35.0778  35.0778  37.9022
    40.3627  40.3627

          k = 0.4500 0.4500 0.4500 (   870 PWs)   bands (ev):

   -22.2990  -6.1851  -6.1789  -6.1789  10.6519  10.7879  10.7879  16.8815
    20.6503  20.6503  22.9203  24.6358  24.6358  29.8319  29.9279  29.9279
    33.7478  33.7478  33.8546  34.3834  35.1992  35.4518  35.4518  37.7507
    40.8561  40.8561

          k = 0.4250 0.4250 0.4250 (   876 PWs)   bands (ev):

   -22.3222  -6.1591  -6.1456  -6.1456  10.6555  10.9473  10.9473  17.3041
    19.8525  19.8525  22.2080  25.3988  25.3988  29.3551  29.5320  29.5320
    33.1520  33.1520  33.7963  34.2387  36.0517  36.0517  36.0603  37.6583
    41.3205  41.3205

          k = 0.4000 0.4000 0.4000 (   877 PWs)   bands (ev):

   -22.3539  -6.1223  -6.0992  -6.0992  10.6795  11.1683  11.1683  17.8684
    19.0393  19.0393  21.3493  26.0907  26.0907  28.8537  29.1799  29.1799
    32.4651  32.4651  33.1458  34.7156  36.5693  36.7437  36.7437  38.0800
    41.0485  41.0485

          k = 0.3750 0.3750 0.3750 (   874 PWs)   bands (ev):

   -22.3932  -6.0745  -6.0402  -6.0402  10.7337  11.4484  11.4484  18.2336
    18.2336  18.5543  20.4147  26.5514  26.5514  28.3596  29.0240  29.0240
    31.7826  31.7826  32.4800  35.2435  36.5500  37.4027  37.4027  39.1714
    40.7763  40.7763

          k = 0.3500 0.3500 0.3500 (   862 PWs)   bands (ev):

   -22.4391  -6.0155  -5.9691  -5.9691  10.8229  11.7838  11.7838  17.4478
    17.4478  19.3189  19.4795  26.6220  26.6220  27.8919  29.1418  29.1418
    31.2389  31.2389  31.8251  35.7458  36.4743  37.8754  37.8754  40.4841
    40.8278  40.8278

          k = 0.3250 0.3250 0.3250 (   862 PWs)   bands (ev):

   -22.4906  -5.9451  -5.8866  -5.8866  10.9448  12.1679  12.1679  16.6922
    16.6922  18.5120  20.2134  26.3859  26.3859  27.4686  29.1725  29.1725
    31.1432  31.1432  31.1955  35.9555  36.7192  38.0701  38.0701  41.2570
    41.2570  41.8300

          k = 0.3000 0.3000 0.3000 (   868 PWs)   bands (ev):

   -22.5463  -5.8634  -5.7939  -5.7939  11.0877  12.5884  12.5884  15.9813
    15.9813  17.6312  21.1265  26.0225  26.0225  27.1160  28.7999  28.7999
    30.5998  31.6531  31.6531  35.8959  37.2618  38.0793  38.0793  41.8274
    41.8274  42.8780

          k = 0.2750 0.2750 0.2750 (   859 PWs)   bands (ev):

   -22.6048  -5.7706  -5.6923  -5.6923  11.2261  13.0142  13.0142  15.3467
    15.3467  16.8517  22.0355  25.6240  25.6240  26.8816  28.2546  28.2546
    30.0433  32.4574  32.4574  35.7969  37.8163  38.0305  38.0305  41.9130
    41.9130  42.3485

          k = 0.2500 0.2500 0.2500 (   859 PWs)   bands (ev):

   -22.6647  -5.6678  -5.5835  -5.5835  11.3160  13.3414  13.3414  14.8919
    14.8919  16.2304  22.8434  25.2273  25.2273  26.8567  27.6973  27.6973
    29.5293  33.3587  33.3587  35.6751  37.9830  37.9830  38.1792  41.0684
    41.0684  41.2619

          k = 0.2250 0.2250 0.2250 (   853 PWs)   bands (ev):

   -22.7245  -5.5562  -5.4699  -5.4699  11.2983  13.3098  13.3098  14.8749
    14.8749  15.8345  23.4070  24.8481  24.8481  27.1791  27.1832  27.1832
    29.0603  34.2611  34.2611  35.4531  37.9329  37.9329  38.0046  39.9251
    39.9251  40.8293

          k = 0.2000 0.2000 0.2000 (   844 PWs)   bands (ev):

   -22.7827  -5.4380  -5.3539  -5.3539  11.1285  12.9331  12.9331  15.2781
    15.2781  15.7129  23.6510  24.4936  24.4936  26.7384  26.7384  27.9162
    28.6380  34.9405  35.0064  35.0064  37.4816  37.7920  37.7920  39.0496
    39.0496  41.1408

          k = 0.1750 0.1750 0.1750 (   844 PWs)   bands (ev):

   -22.8379  -5.3163  -5.2387  -5.2387  10.8173  12.4710  12.4710  15.8353
    15.8353  15.8564  23.6628  24.1671  24.1671  26.3807  26.3807  28.2633
    28.9693  34.0116  35.1176  35.1176  37.2080  37.7434  37.7434  38.8194
    38.8194  41.7405

          k = 0.1500 0.1500 0.1500 (   850 PWs)   bands (ev):

   -22.8888  -5.1948  -5.1278  -5.1278  10.4230  12.0228  12.0228  16.2041
    16.4363  16.4363  23.5637  23.8710  23.8710  26.1261  26.1261  27.9372
    30.1950  32.8495  34.3352  34.3352  37.2252  38.2713  38.2713  39.0382
    39.0382  42.4097

          k = 0.1250 0.1250 0.1250 (   850 PWs)   bands (ev):

   -22.9341  -5.0783  -5.0247  -5.0247  10.0091  11.6198  11.6198  16.6847
    17.0345  17.0345  23.4254  23.6077  23.6077  25.9904  25.9904  27.6604
    31.3282  31.8160  33.2121  33.2121  37.4242  38.8482  38.8482  39.6922
    39.6922  43.0449

          k = 0.1000 0.1000 0.1000 (   847 PWs)   bands (ev):

   -22.9728  -4.9720  -4.9334  -4.9334   9.6231  11.2763  11.2763  17.2348
    17.5943  17.5943  23.2822  23.3805  23.3805  25.9888  25.9888  27.4335
    30.4356  32.0399  32.0399  32.8625  37.7744  39.2824  39.2824  40.6834
    40.6834  43.5075

          k = 0.0750 0.0750 0.0750 (   859 PWs)   bands (ev):

   -23.0038  -4.8815  -4.8577  -4.8577   9.2966  11.0009  11.0009  17.7937
    18.0802  18.0802  23.1510  23.1943  23.1943  26.1329  26.1329  27.2566
    29.4287  30.9137  30.9137  34.0344  38.3122  39.7222  39.7222  41.7313
    41.7313  43.5469

          k = 0.0500 0.0500 0.0500 (   850 PWs)   bands (ev):

   -23.0265  -4.8122  -4.8009  -4.8009   9.0503  10.7999  10.7999  18.2926
    18.4577  18.4577  23.0420  23.0549  23.0549  26.4203  26.4203  27.1302
    28.6167  29.8911  29.8911  34.9467  39.1093  40.2024  40.2024  42.4064
    42.4064  43.1648

          k = 0.0250 0.0250 0.0250 (   859 PWs)   bands (ev):

   -23.0404  -4.7686  -4.7656  -4.7656   8.8975  10.6775  10.6775  18.6483
    18.6971  18.6971  22.9663  22.9680  22.9680  26.7986  26.7986  27.0542
    28.0814  29.0587  29.0587  35.4908  40.1583  40.7042  40.7042  42.1266
    42.1266  42.5026

          k = 0.0000 0.0000 0.0000 (   847 PWs)   bands (ev):

   -23.0450  -4.7536  -4.7536  -4.7536   8.8457  10.6364  10.6364  18.7792
    18.7792  18.7792  22.9385  22.9385  22.9385  27.0289  27.0289  27.0289
    27.8932  28.6751  28.6751  35.6658  41.0293  41.0293  41.0293  41.7970
    41.7970  41.7970

          k = 0.0500 0.0000 0.0000 (   863 PWs)   bands (ev):

   -23.0389  -4.8151  -4.7485  -4.7485   8.9131  10.6544  10.7286  18.5857
    18.5857  18.7898  22.6705  23.1283  23.1283  26.3660  27.1414  27.1414
    28.0994  28.8451  29.4175  35.4486  40.1253  40.1253  41.3191  41.3315
    42.7129  42.7129

          k = 0.1000 0.0000 0.0000 (   855 PWs)   bands (ev):

   -23.0209  -4.9892  -4.7337  -4.7337   9.0951  10.7077  11.0102  18.1076
    18.1076  18.8208  22.0333  23.5823  23.5823  25.3188  27.4901  27.4901
    28.3615  29.5436  30.7042  34.9115  38.9837  38.9837  40.2160  41.7907
    42.1246  43.8220

          k = 0.1500 0.0000 0.0000 (   844 PWs)   bands (ev):

   -22.9926  -5.2494  -4.7103  -4.7103   9.3476  10.7931  11.4816  17.5104
    17.5104  18.8698  21.2806  24.1095  24.1095  24.2926  28.0919  28.0919
    28.5205  30.6693  32.1310  34.2395  37.9111  37.9111  38.6321  40.2036
    43.2244  44.6194

          k = 0.2000 0.0000 0.0000 (   860 PWs)   bands (ev):

   -22.9567  -5.5604  -4.6808  -4.6808   9.6346  10.9052  12.1068  16.9003
    16.9003  18.9328  20.5787  23.3459  24.5978  24.5978  28.6491  28.9337
    28.9337  31.9583  33.5507  33.6416  36.7169  36.9492  36.9492  39.0910
    44.5135  45.0215

          k = 0.2500 0.0000 0.0000 (   852 PWs)   bands (ev):

   -22.9163  -5.8864  -4.6476  -4.6476   9.9405  11.0362  12.7960  16.3339
    16.3339  19.0047  20.0540  22.5006  25.0185  25.0185  28.7201  29.9469
    29.9469  32.9081  33.1988  34.8392  35.2173  36.1457  36.1457  38.3296
    45.1949  45.1949

          k = 0.3000 0.0000 0.0000 (   856 PWs)   bands (ev):

   -22.8754  -6.1958  -4.6142  -4.6142  10.2588  11.1752  13.4068  15.8422
    15.8422  19.0788  19.8462  21.7730  25.3783  25.3783  28.5985  30.9964
    30.9964  32.3465  33.0312  34.3005  35.5964  35.5964  36.8436  38.1188
    45.1901  45.1901

          k = 0.3500 0.0000 0.0000 (   860 PWs)   bands (ev):

   -22.8381  -6.4625  -4.5837  -4.5837  10.5779  11.3085  13.7903  15.4442
    15.4442  19.1476  20.0928  21.1799  25.6826  25.6826  28.0005  31.8373
    31.8373  31.8884  31.9924  34.4991  35.5116  35.5116  38.5043  38.8208
    44.6732  44.6732

          k = 0.4000 0.0000 0.0000 (   856 PWs)   bands (ev):

   -22.8081  -6.6668  -4.5593  -4.5593  10.8714  11.4205  13.9067  15.1523
    15.1523  19.2035  20.7385  20.8209  25.9238  25.9238  26.8160  31.5499
    31.6187  32.2132  32.2132  34.2355  36.1102  36.1102  40.1736  40.2329
    43.2521  43.2521

          k = 0.4500 0.0000 0.0000 (   856 PWs)   bands (ev):

   -22.7886  -6.7948  -4.5436  -4.5436  11.0916  11.4957  13.8709  14.9741
    14.9741  19.2402  20.4653  21.8723  25.4063  26.0826  26.0826  31.3421
    31.6138  32.2547  32.2547  33.9101  37.1534  37.1534  41.7103  41.7103
    41.8058  41.9615

          k = 0.5000 0.0000 0.0000 (   852 PWs)   bands (ev):

   -22.7819  -6.8384  -4.5381  -4.5381  11.1760  11.5222  13.8362  14.9142
    14.9142  19.2530  20.3727  22.6332  24.5179  26.1385  26.1385  31.2720
    31.6543  32.2372  32.2372  33.7687  37.8191  37.8191  40.8941  40.8941
    43.2551  43.3787

          k = 0.5000 0.0500 0.0000 (   848 PWs)   bands (ev):

   -22.7759  -6.8306  -4.5950  -4.5333  11.2521  11.6064  13.4670  14.9312
    15.2040  19.1022  20.5454  22.5996  24.5390  25.9563  26.3818  30.5318
    31.5632  31.9666  33.0189  34.5010  37.6527  37.8311  40.4470  40.9427
    42.5654  43.4778

          k = 0.5000 0.1000 0.0000 (   844 PWs)   bands (ev):

   -22.7585  -6.8081  -4.7567  -4.5193  11.3892  11.9386  12.7936  14.9810
    15.6583  18.7078  21.0377  22.4862  24.6011  25.5367  27.0535  29.5123
    30.5306  32.7871  34.1565  35.6751  37.2187  37.8659  39.6509  40.9369
    41.0921  43.5562

          k = 0.5000 0.1500 0.0000 (   852 PWs)   bands (ev):

   -22.7312  -6.7726  -4.9994  -4.4975  11.5204  12.0785  12.5539  15.0607
    16.0668  18.1841  21.7748  22.2632  24.6986  25.1000  28.0397  28.5354
    29.5644  33.9119  35.3082  36.6423  36.6490  37.9209  38.9874  39.1385
    41.3538  43.6534

          k = 0.5000 0.2000 0.0000 (   858 PWs)   bands (ev):

   -22.6964  -6.7272  -5.2912  -4.4698  11.3926  11.6654  13.3847  15.1652
    16.4221  17.6262  21.9189  22.6425  24.7869  24.8142  27.6367  28.7777
    29.2461  35.0644  36.1417  36.4039  36.6963  37.0075  37.9918  39.6539
    41.7451  43.7521

          k = 0.5000 0.2500 0.0000 (   854 PWs)   bands (ev):

   -22.6573  -6.6761  -5.5988  -4.4388  10.7710  11.8286  14.3632  15.2867
    16.7420  17.0950  21.5012  23.4907  24.6272  24.8945  26.8340  28.3231
    30.6124  34.5476  35.4624  36.1178  37.0239  37.3803  38.0728  40.9081
    42.2783  43.7407

          k = 0.5000 0.3000 0.0000 (   852 PWs)   bands (ev):

   -22.6177  -6.6241  -5.8919  -4.4075  10.2361  12.0019  15.4102  15.4151
    16.6270  17.0362  21.1101  24.1608  24.5867  24.8287  26.1432  28.4200
    32.1020  32.6748  34.8472  35.4596  38.1561  38.1842  38.5479  42.2797
    42.9306  43.1378

          k = 0.5000 0.3500 0.0000 (   856 PWs)   bands (ev):

   -22.5816  -6.5764  -6.1455  -4.3791   9.8042  12.1704  15.5376  16.2449
    16.4082  17.3009  20.8692  24.5555  24.6202  24.6270  25.5804  29.1115
    30.7894  33.6894  34.3845  34.8627  38.2334  38.7932  40.1985  41.6872
    43.4209  43.6074

          k = 0.5000 0.4000 0.0000 (   864 PWs)   bands (ev):

   -22.5526  -6.5380  -6.3404  -4.3563   9.4872  12.3147  15.6400  15.9630
    17.1834  17.5197  20.9026  24.2661  24.7335  24.8630  25.1621  29.0722
    30.1375  34.0406  34.3604  35.3526  38.2965  39.2148  40.1176  41.8865
    42.5837  44.0677

          k = 0.5000 0.4500 0.0000 (   860 PWs)   bands (ev):

   -22.5339  -6.5131  -6.4627  -4.3416   9.2936  12.4133  15.7084  15.7906
    17.6036  17.6675  21.1853  24.0318  24.9036  24.9124  25.0063  27.7001
    31.1471  33.8277  33.9574  37.0529  38.3379  38.8904  39.4631  40.8587
    43.4935  44.3495

          k = 0.5000 0.5000 0.0000 (   872 PWs)   bands (ev):

   -22.5274  -6.5045  -6.5045  -4.3365   9.2285  12.4485  15.7325  15.7325
    17.7202  17.7202  21.3682  23.9456  24.8160  25.0528  25.0528  27.0949
    31.6309  33.7555  33.7555  38.3354  38.3635  38.4033  39.5455  39.5455
    44.4305  44.4305

          k = 0.4750 0.4750 0.0000 (   860 PWs)   bands (ev):

   -22.5306  -6.4968  -6.4954  -4.3391   9.2610  12.4307  15.7366  15.7453
    17.6786  17.6803  21.2683  23.9872  24.7958  24.8599  25.2266  27.3946
    31.3933  33.5566  34.0852  37.7764  37.9463  38.6492  39.9663  40.0622
    44.0591  44.1925

          k = 0.4500 0.4500 0.0000 (   860 PWs)   bands (ev):

   -22.5404  -6.4740  -6.4686  -4.3467   9.3580  12.3780  15.7494  15.7837
    17.5542  17.5544  21.0326  24.0253  24.3570  24.9906  25.6889  28.0368
    30.9290  33.0570  34.8344  36.8467  37.2220  39.2879  40.6982  40.8429
    43.3015  43.5764

          k = 0.4250 0.4250 0.0000 (   860 PWs)   bands (ev):

   -22.5563  -6.4361  -6.4243  -4.3592   9.5169  12.2930  15.7726  15.8475
    17.3283  17.3502  20.7779  23.5973  24.4237  25.2054  26.3342  28.7463
    30.5136  32.4154  35.7721  35.8624  36.4513  40.1492  41.4745  41.4986
    42.4446  42.7467

          k = 0.4000 0.4000 0.0000 (   850 PWs)   bands (ev):

   -22.5780  -6.3831  -6.3632  -4.3762   9.7333  12.1802  15.8087  15.9362
    16.9948  17.0692  20.5859  23.0865  24.6692  25.4998  27.0826  29.2578
    30.4246  31.7367  34.8706  35.6740  36.8179  40.9848  41.7034  41.8164
    41.8625  42.2409

          k = 0.3750 0.3750 0.0000 (   856 PWs)   bands (ev):

   -22.6049  -6.3153  -6.2861  -4.3974   9.9992  12.0461  15.8605  16.0492
    16.5631  16.7181  20.4883  22.6569  24.9223  25.8672  27.8736  29.3165
    30.9389  31.0880  33.8887  34.9008  37.9338  40.4819  40.8565  41.8836
    42.3463  42.9543

          k = 0.3500 0.3500 0.0000 (   850 PWs)   bands (ev):

   -22.6363  -6.2330  -6.1943  -4.4222  10.2998  11.9018  15.9314  16.0582
    16.1856  16.3104  20.4829  22.3333  25.1214  26.2985  28.6105  29.2980
    30.5664  31.7096  32.9294  34.1366  39.0250  39.5828  39.9835  41.6817
    43.3666  43.5417

          k = 0.3250 0.3250 0.0000 (   848 PWs)   bands (ev):

   -22.6714  -6.1369  -6.0891  -4.4501  10.6042  11.7694  15.5088  15.8704
    16.0242  16.3443  20.5544  22.1194  25.2211  26.7787  28.9633  29.4358
    30.4976  32.0082  32.5141  33.3850  38.6762  38.8323  40.4662  41.3818
    43.5009  43.8827

          k = 0.3000 0.3000 0.0000 (   856 PWs)   bands (ev):

   -22.7093  -6.0281  -5.9725  -4.4803  10.8380  11.7042  14.9392  15.4370
    16.1415  16.5238  20.6865  22.0076  25.2132  27.2779  28.7031  29.7679
    31.0993  31.1538  32.6488  33.2683  37.7976  38.0324  41.0502  41.5215
    42.5179  43.8946

          k = 0.2750 0.2750 0.0000 (   860 PWs)   bands (ev):

   -22.7490  -5.9078  -5.8465  -4.5122  10.8882  11.7804  14.3681  15.0692
    16.2854  16.7223  20.8660  21.9839  25.1272  27.7174  28.2575  30.2611
    30.4435  31.9165  31.9318  33.8618  36.9846  37.4003  40.7191  40.9549
    43.1045  43.6553

          k = 0.2500 0.2500 0.0000 (   868 PWs)   bands (ev):

   -22.7896  -5.7781  -5.7137  -4.5448  10.7724  11.9123  13.8091  14.8539
    16.4571  16.9373  21.0822  22.0316  25.0066  27.8104  27.8792  30.0926
    30.8473  31.2373  32.6861  34.1119  36.3236  37.1316  39.7754  40.4062
    43.3012  44.0570

          k = 0.2250 0.2250 0.0000 (   858 PWs)   bands (ev):

   -22.8300  -5.6413  -5.5768  -4.5775  10.5821  11.9331  13.2731  14.8809
    16.6572  17.1659  21.3257  22.1323  24.8912  27.4051  27.5491  30.3125
    30.5703  31.4065  33.1438  34.0042  36.0429  37.1144  38.8158  40.1225
    42.9172  43.7290

          k = 0.2000 0.2000 0.0000 (   856 PWs)   bands (ev):

   -22.8693  -5.5006  -5.4390  -4.6094  10.3572  11.7992  12.7687  15.1637
    16.8850  17.4040  21.5872  22.2654  24.8147  26.9311  27.0586  29.9355
    30.8947  31.6721  33.0181  33.9771  36.4036  36.4743  38.8061  39.8767
    42.5436  43.4187

          k = 0.1750 0.1750 0.0000 (   852 PWs)   bands (ev):

   -22.9064  -5.3598  -5.3041  -4.6396  10.1111  11.5755  12.3035  15.6292
    17.1388  17.6467  21.8559  22.4086  24.8068  26.2366  26.7823  29.3394
    31.4081  31.6224  32.4893  34.4374  35.3300  37.2221  39.4642  39.6775
    42.1995  43.1428

          k = 0.1500 0.1500 0.0000 (   857 PWs)   bands (ev):

   -22.9406  -5.2230  -5.1757  -4.6676   9.8527  11.3345  11.8842  16.1954
    17.4147  17.8878  22.1195  22.5407  24.8935  25.5428  26.5866  28.7893
    30.8291  31.8240  32.4093  34.1089  35.2466  38.2278  39.5362  40.2882
    41.8940  42.9121

          k = 0.1250 0.1250 0.0000 (   857 PWs)   bands (ev):

   -22.9710  -5.0950  -5.0578  -4.6925   9.5941  11.1173  11.5171  16.8019
    17.7066  18.1195  22.3636  22.6484  24.8819  25.0908  26.4820  28.2942
    30.1576  31.1318  32.9148  33.2099  36.2063  39.3016  39.4695  41.1441
    41.6320  42.7420

          k = 0.1000 0.1000 0.0000 (   861 PWs)   bands (ev):

   -22.9968  -4.9809  -4.9545  -4.7138   9.3515  10.9395  11.2078  17.4009
    18.0042  18.3323  22.5734  22.7325  24.2751  25.3993  26.4762  27.8644
    29.4874  30.4564  31.7796  33.9810  37.2424  39.5031  40.3656  41.4159
    41.9424  42.6733

          k = 0.0750 0.0750 0.0000 (   851 PWs)   bands (ev):

   -23.0175  -4.8856  -4.8694  -4.7309   9.1421  10.8043  10.9613  17.9460
    18.2905  18.5155  22.7378  22.8029  23.7447  25.8055  26.5687  27.5117
    28.8721  29.8252  30.7282  34.6691  38.3161  39.6741  41.2471  41.2530
    42.4746  42.8562

          k = 0.0500 0.0500 0.0000 (   861 PWs)   bands (ev):

   -23.0327  -4.8137  -4.8061  -4.7435   8.9812  10.7102  10.7819  18.3878
    18.5395  18.6576  22.8518  22.8668  23.3197  26.2829  26.7400  27.2479
    28.3624  29.2690  29.7893  35.2102  39.3909  40.0233  41.1261  41.6775
    42.5072  43.3344

          k = 0.0250 0.0250 0.0000 (   855 PWs)   bands (ev):

   -23.0420  -4.7689  -4.7669  -4.7511   8.8801  10.6547  10.6729  18.6778
    18.7149  18.7481  22.9173  22.9179  23.0381  26.7679  26.9334  27.0844
    28.0173  28.8464  29.0275  35.5509  40.4007  40.5592  41.0535  41.7802
    42.1824  42.4070

          k = 0.0000 0.0000 0.0000 (   847 PWs)   bands (ev):

   -23.0450  -4.7536  -4.7536  -4.7536   8.8457  10.6364  10.6364  18.7792
    18.7792  18.7792  22.9385  22.9385  22.9385  27.0289  27.0289  27.0289
    27.8932  28.6751  28.6751  35.6658  41.0293  41.0293  41.0293  41.7970
    41.7970  41.7970

          k = 0.0250 0.0250 0.0250 (   859 PWs)   bands (ev):

   -23.0404  -4.7686  -4.7656  -4.7656   8.8975  10.6775  10.6775  18.6483
    18.6971  18.6971  22.9663  22.9680  22.9680  26.7986  26.7986  27.0542
    28.0814  29.0587  29.0587  35.4908  40.1583  40.7042  40.7042  42.1266
    42.1266  42.5026

          k = 0.0500 0.0500 0.0500 (   850 PWs)   bands (ev):

   -23.0265  -4.8122  -4.8009  -4.8009   9.0503  10.7999  10.7999  18.2926
    18.4577  18.4577  23.0420  23.0549  23.0549  26.4203  26.4203  27.1302
    28.6167  29.8911  29.8911  34.9467  39.1093  40.2024  40.2024  42.4064
    42.4064  43.1648

          k = 0.0750 0.0750 0.0750 (   859 PWs)   bands (ev):

   -23.0038  -4.8815  -4.8577  -4.8577   9.2966  11.0009  11.0009  17.7937
    18.0802  18.0802  23.1510  23.1943  23.1943  26.1329  26.1329  27.2566
    29.4287  30.9137  30.9137  34.0344  38.3122  39.7222  39.7222  41.7313
    41.7313  43.5469

          k = 0.1000 0.1000 0.1000 (   847 PWs)   bands (ev):

   -22.9728  -4.9720  -4.9334  -4.9334   9.6231  11.2763  11.2763  17.2348
    17.5943  17.5943  23.2822  23.3805  23.3805  25.9888  25.9888  27.4335
    30.4356  32.0399  32.0399  32.8625  37.7744  39.2824  39.2824  40.6834
    40.6834  43.5075

          k = 0.1250 0.1250 0.1250 (   850 PWs)   bands (ev):

   -22.9341  -5.0783  -5.0247  -5.0247  10.0091  11.6198  11.6198  16.6847
    17.0345  17.0345  23.4254  23.6077  23.6077  25.9904  25.9904  27.6604
    31.3282  31.8160  33.2121  33.2121  37.4242  38.8482  38.8482  39.6922
    39.6922  43.0449

          k = 0.1500 0.1500 0.1500 (   850 PWs)   bands (ev):

   -22.8888  -5.1948  -5.1278  -5.1278  10.4230  12.0228  12.0228  16.2041
    16.4363  16.4363  23.5637  23.8710  23.8710  26.1261  26.1261  27.9372
    30.1950  32.8495  34.3352  34.3352  37.2252  38.2713  38.2713  39.0382
    39.0382  42.4097

          k = 0.1750 0.1750 0.1750 (   844 PWs)   bands (ev):

   -22.8379  -5.3163  -5.2387  -5.2387  10.8173  12.4710  12.4710  15.8353
    15.8353  15.8564  23.6628  24.1671  24.1671  26.3807  26.3807  28.2633
    28.9693  34.0116  35.1176  35.1176  37.2080  37.7434  37.7434  38.8194
    38.8194  41.7405

          k = 0.2000 0.2000 0.2000 (   844 PWs)   bands (ev):

   -22.7827  -5.4380  -5.3539  -5.3539  11.1285  12.9331  12.9331  15.2781
    15.2781  15.7129  23.6510  24.4936  24.4936  26.7384  26.7384  27.9162
    28.6380  34.9405  35.0064  35.0064  37.4816  37.7920  37.7920  39.0496
    39.0496  41.1408

          k = 0.2250 0.2250 0.2250 (   853 PWs)   bands (ev):

   -22.7245  -5.5562  -5.4699  -5.4699  11.2983  13.3098  13.3098  14.8749
    14.8749  15.8345  23.4070  24.8481  24.8481  27.1791  27.1832  27.1832
    29.0603  34.2611  34.2611  35.4531  37.9329  37.9329  38.0046  39.9251
    39.9251  40.8293

          k = 0.2500 0.2500 0.2500 (   859 PWs)   bands (ev):

   -22.6647  -5.6678  -5.5835  -5.5835  11.3160  13.3414  13.3414  14.8919
    14.8919  16.2304  22.8434  25.2273  25.2273  26.8567  27.6973  27.6973
    29.5293  33.3587  33.3587  35.6751  37.9830  37.9830  38.1792  41.0684
    41.0684  41.2619

          k = 0.2750 0.2750 0.2750 (   859 PWs)   bands (ev):

   -22.6048  -5.7706  -5.6923  -5.6923  11.2261  13.0142  13.0142  15.3467
    15.3467  16.8517  22.0355  25.6240  25.6240  26.8816  28.2546  28.2546
    30.0433  32.4574  32.4574  35.7969  37.8163  38.0305  38.0305  41.9130
    41.9130  42.3485

          k = 0.3000 0.3000 0.3000 (   868 PWs)   bands (ev):

   -22.5463  -5.8634  -5.7939  -5.7939  11.0877  12.5884  12.5884  15.9813
    15.9813  17.6312  21.1265  26.0225  26.0225  27.1160  28.7999  28.7999
    30.5998  31.6531  31.6531  35.8959  37.2618  38.0793  38.0793  41.8274
    41.8274  42.8780

          k = 0.3250 0.3250 0.3250 (   862 PWs)   bands (ev):

   -22.4906  -5.9451  -5.8866  -5.8866  10.9448  12.1679  12.1679  16.6922
    16.6922  18.5120  20.2134  26.3859  26.3859  27.4686  29.1725  29.1725
    31.1432  31.1432  31.1955  35.9555  36.7192  38.0701  38.0701  41.2570
    41.2570  41.8300

          k = 0.3500 0.3500 0.3500 (   862 PWs)   bands (ev):

   -22.4391  -6.0155  -5.9691  -5.9691  10.8229  11.7838  11.7838  17.4478
    17.4478  19.3189  19.4795  26.6220  26.6220  27.8919  29.1418  29.1418
    31.2389  31.2389  31.8251  35.7458  36.4743  37.8754  37.8754  40.4841
    40.8278  40.8278

          k = 0.3750 0.3750 0.3750 (   874 PWs)   bands (ev):

   -22.3932  -6.0745  -6.0402  -6.0402  10.7337  11.4484  11.4484  18.2336
    18.2336  18.5543  20.4147  26.5514  26.5514  28.3596  29.0240  29.0240
    31.7826  31.7826  32.4800  35.2435  36.5500  37.4027  37.4027  39.1714
    40.7763  40.7763

          k = 0.4000 0.4000 0.4000 (   877 PWs)   bands (ev):

   -22.3539  -6.1223  -6.0992  -6.0992  10.6795  11.1683  11.1683  17.8684
    19.0393  19.0393  21.3493  26.0907  26.0907  28.8537  29.1799  29.1799
    32.4651  32.4651  33.1458  34.7156  36.5693  36.7437  36.7437  38.0800
    41.0485  41.0485

          k = 0.4250 0.4250 0.4250 (   876 PWs)   bands (ev):

   -22.3222  -6.1591  -6.1456  -6.1456  10.6555  10.9473  10.9473  17.3041
    19.8525  19.8525  22.2080  25.3988  25.3988  29.3551  29.5320  29.5320
    33.1520  33.1520  33.7963  34.2387  36.0517  36.0517  36.0603  37.6583
    41.3205  41.3205

          k = 0.4500 0.4500 0.4500 (   870 PWs)   bands (ev):

   -22.2990  -6.1851  -6.1789  -6.1789  10.6519  10.7879  10.7879  16.8815
    20.6503  20.6503  22.9203  24.6358  24.6358  29.8319  29.9279  29.9279
    33.7478  33.7478  33.8546  34.3834  35.1992  35.4518  35.4518  37.7507
    40.8561  40.8561

          k = 0.4750 0.4750 0.4750 (   870 PWs)   bands (ev):

   -22.2849  -6.2006  -6.1990  -6.1990  10.6566  10.6917  10.6917  16.6187
    21.3634  21.3634  23.4016  23.9294  23.9294  30.2136  30.2454  30.2454
    33.6067  34.1236  34.1236  34.4958  34.8201  35.0778  35.0778  37.9022
    40.3627  40.3627

          k = 0.5000 0.5000 0.5000 (   840 PWs)   bands (ev):

   -22.2801  -6.2056  -6.2056  -6.2056  10.6596  10.6596  10.6596  16.5294
    21.7203  21.7203  23.5732  23.5732  23.5732  30.3703  30.3703  30.3703
    33.5251  34.2159  34.2159  34.2159  34.9879  34.9879  34.9879  37.9667
    40.1737  40.1737

     Writing all to output data dir ./work/POSCAR.save/

     init_run     :      0.24s CPU      0.26s WALL (       1 calls)
     electrons    :      2.43s CPU      2.74s WALL (       1 calls)

     Called by init_run:
     wfcinit      :      0.00s CPU      0.01s WALL (       1 calls)
     potinit      :      0.17s CPU      0.18s WALL (       1 calls)
     hinit0       :      0.06s CPU      0.06s WALL (       1 calls)

     Called by electrons:
     c_bands      :      2.42s CPU      2.73s WALL (       1 calls)
     v_of_rho     :      0.00s CPU      0.00s WALL (       1 calls)
     newd         :      0.00s CPU      0.00s WALL (       1 calls)
     PAW_pot      :      0.03s CPU      0.03s WALL (       1 calls)

     Called by c_bands:
     init_us_2    :      0.00s CPU      0.00s WALL (      91 calls)
     init_us_2:cp :      0.00s CPU      0.00s WALL (      91 calls)
     cegterg      :      2.25s CPU      2.36s WALL (     114 calls)

     Called by *egterg:
     cdiaghg      :      0.81s CPU      0.85s WALL (    1684 calls)
     h_psi        :      1.20s CPU      1.26s WALL (    1798 calls)
     s_psi        :      0.02s CPU      0.02s WALL (    1798 calls)
     g_psi        :      0.01s CPU      0.01s WALL (    1593 calls)

     Called by h_psi:
     h_psi:calbec :      0.05s CPU      0.06s WALL (    1798 calls)
     vloc_psi     :      1.12s CPU      1.17s WALL (    1798 calls)
     add_vuspsi   :      0.02s CPU      0.02s WALL (    1798 calls)

     General routines
     calbec       :      0.05s CPU      0.06s WALL (    1798 calls)
     fft          :      0.04s CPU      0.04s WALL (      13 calls)
     ffts         :      0.13s CPU      0.13s WALL (       1 calls)
     fftw         :      1.03s CPU      1.07s WALL (   50970 calls)
     interpolate  :      0.13s CPU      0.13s WALL (       1 calls)
     davcio       :      0.00s CPU      0.14s WALL (     182 calls)

     Parallel routines

     PWSCF        :      2.99s CPU      3.99s WALL


   This run was terminated on:  22:39:19  15May2024            

=------------------------------------------------------------------------------=
   JOB DONE.
=------------------------------------------------------------------------------=
