
     Program PWSCF v.7.1 starts on 15May2024 at 22:40:57 

     This program is part of the open-source Quantum ESPRESSO suite
     for quantum simulation of materials; please cite
         "P. Giannozzi et al., J. Phys.:Condens. Matter 21 395502 (2009);
         "P. Giannozzi et al., J. Phys.:Condens. Matter 29 465901 (2017);
         "P. Giannozzi et al., J. Chem. Phys. 152 154105 (2020);
          URL http://www.quantum-espresso.org", 
     in publications or presentations arising from this work. More details at
     http://www.quantum-espresso.org/quote

     Parallel version (MPI & OpenMP), running on      10 processor cores
     Number of MPI processes:                10
     Threads/MPI process:                     1

     MPI processes distributed on     1 nodes
     14549 MiB available memory on the printing compute node when the environment starts

     Waiting for input...
     Reading input from standard input

     Current dimensions of program PWSCF are:
     Max number of different atomic species (ntypx) = 10
     Max number of k-points (npk) =  40000
     Max angular momentum in pseudopotentials (lmaxx) =  4

     Atomic positions and unit cell read from directory:
     ./work/POSCAR.save/

     file Ce.pbe-spdn-kjpaw_psl.1.0.0.UPF: wavefunction(s)  5D renormalized
     Message from routine setup:
     using ibrav=0 with symmetry is DISCOURAGED, use correct ibrav instead

     R & G space division:  proc/nbgrp/npool/nimage =      10
     Subspace diagonalization in iterative solution of the eigenvalue problem:
     a serial algorithm will be used


     Parallelization info
     --------------------
     sticks:   dense  smooth     PW     G-vecs:    dense   smooth      PW
     Min          57      48     14                 1038      780     140
     Max          58      49     15                 1040      783     143
     Sum         577     481    149                10395     7809    1419

     Using Slab Decomposition



     bravais-lattice index     =            0
     lattice parameter (alat)  =       6.3447  a.u.
     unit-cell volume          =     255.4026 (a.u.)^3
     number of atoms/cell      =            1
     number of atomic types    =            1
     number of electrons       =        11.00
     number of Kohn-Sham states=           26
     kinetic-energy cutoff     =      37.0000  Ry
     charge density cutoff     =     179.0000  Ry
     Exchange-correlation= SLA  PW   PBX  PBC
                           (   1   4   3   4   0   0   0)

     celldm(1)=   6.344661  celldm(2)=   0.000000  celldm(3)=   0.000000
     celldm(4)=   0.000000  celldm(5)=   0.000000  celldm(6)=   0.000000

     crystal axes: (cart. coord. in units of alat)
               a(1) = (   1.000000   0.000000   0.000000 )  
               a(2) = (   0.000000   1.000000   0.000000 )  
               a(3) = (   0.000000   0.000000   1.000000 )  

     reciprocal axes: (cart. coord. in units 2 pi/alat)
               b(1) = (  1.000000  0.000000  0.000000 )  
               b(2) = (  0.000000  1.000000  0.000000 )  
               b(3) = (  0.000000  0.000000  1.000000 )  


     PseudoPot. # 1 for Ce read from file:
     ./../../../../pseudo/psl100_PBE/Ce.pbe-spdn-kjpaw_psl.1.0.0.UPF
     MD5 check sum: 1a25380276e46fcecd5a173acdad072c
     Pseudo is Projector augmented-wave + core cor, Zval = 11.0
     Generated using 'atomic' code by A. Dal Corso  v.7.2
     Shape of augmentation charge: PSQ
     Using radial grid of 1255 points,  6 beta functions with: 
                l(1) =   0
                l(2) =   0
                l(3) =   1
                l(4) =   1
                l(5) =   2
                l(6) =   2
     Q(r) pseudized with 0 coefficients 


     atomic species   valence    mass     pseudopotential
        Ce            11.00   140.11600     Ce( 1.00)

     48 Sym. Ops., with inversion, found



   Cartesian axes

     site n.     atom                  positions (alat units)
         1           Ce  tau(   1) = (   0.0000000   0.0000000   0.0000000  )

     number of k points=    91  Methfessel-Paxton smearing, width (Ry)=  0.0200
                       cart. coord. in units 2pi/alat
        k(    1) = (   0.0000000   0.5000000   0.5000000), wk =   0.0219780
        k(    2) = (   0.0500000   0.5000000   0.5000000), wk =   0.0219780
        k(    3) = (   0.1000000   0.5000000   0.5000000), wk =   0.0219780
        k(    4) = (   0.1500000   0.5000000   0.5000000), wk =   0.0219780
        k(    5) = (   0.2000000   0.5000000   0.5000000), wk =   0.0219780
        k(    6) = (   0.2500000   0.5000000   0.5000000), wk =   0.0219780
        k(    7) = (   0.3000000   0.5000000   0.5000000), wk =   0.0219780
        k(    8) = (   0.3500000   0.5000000   0.5000000), wk =   0.0219780
        k(    9) = (   0.4000000   0.5000000   0.5000000), wk =   0.0219780
        k(   10) = (   0.4500000   0.5000000   0.5000000), wk =   0.0219780
        k(   11) = (   0.5000000   0.5000000   0.5000000), wk =   0.0219780
        k(   12) = (   0.4750000   0.4750000   0.4750000), wk =   0.0219780
        k(   13) = (   0.4500000   0.4500000   0.4500000), wk =   0.0219780
        k(   14) = (   0.4250000   0.4250000   0.4250000), wk =   0.0219780
        k(   15) = (   0.4000000   0.4000000   0.4000000), wk =   0.0219780
        k(   16) = (   0.3750000   0.3750000   0.3750000), wk =   0.0219780
        k(   17) = (   0.3500000   0.3500000   0.3500000), wk =   0.0219780
        k(   18) = (   0.3250000   0.3250000   0.3250000), wk =   0.0219780
        k(   19) = (   0.3000000   0.3000000   0.3000000), wk =   0.0219780
        k(   20) = (   0.2750000   0.2750000   0.2750000), wk =   0.0219780
        k(   21) = (   0.2500000   0.2500000   0.2500000), wk =   0.0219780
        k(   22) = (   0.2250000   0.2250000   0.2250000), wk =   0.0219780
        k(   23) = (   0.2000000   0.2000000   0.2000000), wk =   0.0219780
        k(   24) = (   0.1750000   0.1750000   0.1750000), wk =   0.0219780
        k(   25) = (   0.1500000   0.1500000   0.1500000), wk =   0.0219780
        k(   26) = (   0.1250000   0.1250000   0.1250000), wk =   0.0219780
        k(   27) = (   0.1000000   0.1000000   0.1000000), wk =   0.0219780
        k(   28) = (   0.0750000   0.0750000   0.0750000), wk =   0.0219780
        k(   29) = (   0.0500000   0.0500000   0.0500000), wk =   0.0219780
        k(   30) = (   0.0250000   0.0250000   0.0250000), wk =   0.0219780
        k(   31) = (   0.0000000   0.0000000   0.0000000), wk =   0.0219780
        k(   32) = (   0.0500000   0.0000000   0.0000000), wk =   0.0219780
        k(   33) = (   0.1000000   0.0000000   0.0000000), wk =   0.0219780
        k(   34) = (   0.1500000   0.0000000   0.0000000), wk =   0.0219780
        k(   35) = (   0.2000000   0.0000000   0.0000000), wk =   0.0219780
        k(   36) = (   0.2500000   0.0000000   0.0000000), wk =   0.0219780
        k(   37) = (   0.3000000   0.0000000   0.0000000), wk =   0.0219780
        k(   38) = (   0.3500000   0.0000000   0.0000000), wk =   0.0219780
        k(   39) = (   0.4000000   0.0000000   0.0000000), wk =   0.0219780
        k(   40) = (   0.4500000   0.0000000   0.0000000), wk =   0.0219780
        k(   41) = (   0.5000000   0.0000000   0.0000000), wk =   0.0219780
        k(   42) = (   0.5000000   0.0500000   0.0000000), wk =   0.0219780
        k(   43) = (   0.5000000   0.1000000   0.0000000), wk =   0.0219780
        k(   44) = (   0.5000000   0.1500000   0.0000000), wk =   0.0219780
        k(   45) = (   0.5000000   0.2000000   0.0000000), wk =   0.0219780
        k(   46) = (   0.5000000   0.2500000   0.0000000), wk =   0.0219780
        k(   47) = (   0.5000000   0.3000000   0.0000000), wk =   0.0219780
        k(   48) = (   0.5000000   0.3500000   0.0000000), wk =   0.0219780
        k(   49) = (   0.5000000   0.4000000   0.0000000), wk =   0.0219780
        k(   50) = (   0.5000000   0.4500000   0.0000000), wk =   0.0219780
        k(   51) = (   0.5000000   0.5000000   0.0000000), wk =   0.0219780
        k(   52) = (   0.4750000   0.4750000   0.0000000), wk =   0.0219780
        k(   53) = (   0.4500000   0.4500000   0.0000000), wk =   0.0219780
        k(   54) = (   0.4250000   0.4250000   0.0000000), wk =   0.0219780
        k(   55) = (   0.4000000   0.4000000   0.0000000), wk =   0.0219780
        k(   56) = (   0.3750000   0.3750000   0.0000000), wk =   0.0219780
        k(   57) = (   0.3500000   0.3500000   0.0000000), wk =   0.0219780
        k(   58) = (   0.3250000   0.3250000   0.0000000), wk =   0.0219780
        k(   59) = (   0.3000000   0.3000000   0.0000000), wk =   0.0219780
        k(   60) = (   0.2750000   0.2750000   0.0000000), wk =   0.0219780
        k(   61) = (   0.2500000   0.2500000   0.0000000), wk =   0.0219780
        k(   62) = (   0.2250000   0.2250000   0.0000000), wk =   0.0219780
        k(   63) = (   0.2000000   0.2000000   0.0000000), wk =   0.0219780
        k(   64) = (   0.1750000   0.1750000   0.0000000), wk =   0.0219780
        k(   65) = (   0.1500000   0.1500000   0.0000000), wk =   0.0219780
        k(   66) = (   0.1250000   0.1250000   0.0000000), wk =   0.0219780
        k(   67) = (   0.1000000   0.1000000   0.0000000), wk =   0.0219780
        k(   68) = (   0.0750000   0.0750000   0.0000000), wk =   0.0219780
        k(   69) = (   0.0500000   0.0500000   0.0000000), wk =   0.0219780
        k(   70) = (   0.0250000   0.0250000   0.0000000), wk =   0.0219780
        k(   71) = (   0.0000000   0.0000000   0.0000000), wk =   0.0219780
        k(   72) = (   0.0250000   0.0250000   0.0250000), wk =   0.0219780
        k(   73) = (   0.0500000   0.0500000   0.0500000), wk =   0.0219780
        k(   74) = (   0.0750000   0.0750000   0.0750000), wk =   0.0219780
        k(   75) = (   0.1000000   0.1000000   0.1000000), wk =   0.0219780
        k(   76) = (   0.1250000   0.1250000   0.1250000), wk =   0.0219780
        k(   77) = (   0.1500000   0.1500000   0.1500000), wk =   0.0219780
        k(   78) = (   0.1750000   0.1750000   0.1750000), wk =   0.0219780
        k(   79) = (   0.2000000   0.2000000   0.2000000), wk =   0.0219780
        k(   80) = (   0.2250000   0.2250000   0.2250000), wk =   0.0219780
        k(   81) = (   0.2500000   0.2500000   0.2500000), wk =   0.0219780
        k(   82) = (   0.2750000   0.2750000   0.2750000), wk =   0.0219780
        k(   83) = (   0.3000000   0.3000000   0.3000000), wk =   0.0219780
        k(   84) = (   0.3250000   0.3250000   0.3250000), wk =   0.0219780
        k(   85) = (   0.3500000   0.3500000   0.3500000), wk =   0.0219780
        k(   86) = (   0.3750000   0.3750000   0.3750000), wk =   0.0219780
        k(   87) = (   0.4000000   0.4000000   0.4000000), wk =   0.0219780
        k(   88) = (   0.4250000   0.4250000   0.4250000), wk =   0.0219780
        k(   89) = (   0.4500000   0.4500000   0.4500000), wk =   0.0219780
        k(   90) = (   0.4750000   0.4750000   0.4750000), wk =   0.0219780
        k(   91) = (   0.5000000   0.5000000   0.5000000), wk =   0.0219780

     Dense  grid:    10395 G-vectors     FFT dimensions: (  27,  27,  27)

     Smooth grid:     7809 G-vectors     FFT dimensions: (  25,  25,  25)

     Estimated max dynamical RAM per process >       4.40 MB

     Estimated total dynamical RAM >      43.98 MB

     The potential is recalculated from file :
     ./work/POSCAR.save/charge-density

     Starting wfcs are   13 randomized atomic wfcs +   13 random wfcs
     Checking if some PAW data can be deallocated... 

     Band Structure Calculation
     Davidson diagonalization with overlap

     ethr =  6.64E-07,  avg # of iterations = 18.9

     total cpu time spent up to now is        3.8 secs

     End of band structure calculation

          k = 0.0000 0.5000 0.5000 (   992 PWs)   bands (ev):

   -24.3478  -7.9826  -7.9826  -6.4051   8.0721  10.6759  13.7454  13.7454
    15.3537  15.3537  18.4930  21.3800  22.4930  22.4930  22.6136  23.3440
    28.3989  30.8171  30.8171  34.5615  35.0732  35.1437  35.3482  35.3482
    40.1513  40.1513

          k = 0.0500 0.5000 0.5000 (   980 PWs)   bands (ev):

   -24.3440  -7.9776  -7.9776  -6.4429   8.0950  10.7947  13.3650  13.3650
    15.7639  15.7639  18.4995  20.7854  22.5506  22.5506  23.1947  23.3455
    28.4928  30.8337  30.8337  34.4537  34.9525  35.1094  35.1094  35.1709
    40.4489  40.4607

          k = 0.1000 0.5000 0.5000 (   996 PWs)   bands (ev):

   -24.3329  -7.9632  -7.9632  -6.5512   8.1629  11.1454  12.6738  12.6738
    16.5376  16.5376  18.5184  19.8439  22.7275  22.7275  23.3467  24.0776
    28.7912  30.8824  30.8824  34.1536  34.5318  34.5318  34.6290  35.2518
    38.9364  39.9139

          k = 0.1500 0.5000 0.5000 (   984 PWs)   bands (ev):

   -24.3155  -7.9406  -7.9406  -6.7155   8.2733  11.7123  11.9665  11.9665
    17.3613  17.3613  18.5483  18.8976  23.0349  23.0349  23.3364  24.8775
    29.3322  30.9604  30.9604  33.7178  33.8272  33.8272  34.1874  35.3845
    36.9446  39.2746

          k = 0.2000 0.5000 0.5000 (   984 PWs)   bands (ev):

   -24.2934  -7.9118  -7.9118  -6.9157   8.4215  11.3105  11.3105  12.4726
    18.0001  18.1391  18.1391  18.5864  23.2930  23.4856  23.4856  25.5108
    30.1357  31.0616  31.0616  33.1228  33.1228  33.2055  33.7049  35.0323
    35.5653  38.6506

          k = 0.2500 0.5000 0.5000 (   988 PWs)   bands (ev):

   -24.2688  -7.8797  -7.8797  -7.1295   8.5998  10.7307  10.7307  13.3993
    17.1753  18.6293  18.8188  18.8188  23.1802  24.0805  24.0805  25.9740
    31.1604  31.1756  31.1756  32.4920  32.4920  32.6442  33.2360  33.2951
    35.7876  38.1158

          k = 0.3000 0.5000 0.5000 (   972 PWs)   bands (ev):

   -24.2440  -7.8471  -7.8471  -7.3357   8.7967  10.2410  10.2410  14.4627
    16.4430  18.6730  19.3721  19.3721  22.9419  24.7899  24.7899  26.3054
    31.2766  31.2766  31.6125  32.0009  32.0009  32.2702  32.3028  32.8168
    36.0405  37.7465

          k = 0.3500 0.5000 0.5000 (   980 PWs)   bands (ev):

   -24.2214  -7.8174  -7.8174  -7.5159   8.9946   9.8508   9.8508  15.6290
    15.8252  18.7130  19.7930  19.7930  22.5069  25.5390  25.5390  26.5420
    30.3812  31.2837  31.2837  31.7636  31.7636  31.8046  32.4702  33.3962
    36.3054  37.6720

          k = 0.4000 0.5000 0.5000 (   968 PWs)   bands (ev):

   -24.2034  -7.7936  -7.7936  -7.6551   9.1695   9.5671   9.5671  15.3486
    16.8539  18.7453  20.0871  20.0871  21.8250  26.2103  26.2103  26.7048
    29.4908  31.1940  31.1940  31.4600  31.8053  31.8053  32.2126  34.1993
    36.5520  38.1030

          k = 0.4500 0.5000 0.5000 (   968 PWs)   bands (ev):

   -24.1917  -7.7783  -7.7783  -7.7430   9.2925   9.3949   9.3949  15.0441
    18.0489  18.7663  20.2613  20.2613  20.9441  26.6716  26.6716  26.8015
    28.9789  31.1619  31.1619  31.2416  31.9314  31.9314  32.0541  34.5812
    36.7350  37.1873

          k = 0.5000 0.5000 0.5000 (   968 PWs)   bands (ev):

   -24.1877  -7.7730  -7.7730  -7.7730   9.3371   9.3371   9.3371  14.9389
    18.7735  18.7735  20.3191  20.3191  20.3191  26.8337  26.8337  26.8337
    28.8156  31.1665  31.1665  31.1665  32.0006  32.0006  32.0006  34.6763
    36.8040  36.8040

          k = 0.4750 0.4750 0.4750 (   968 PWs)   bands (ev):

   -24.1907  -7.7689  -7.7677  -7.7677   9.3332   9.3654   9.3654  15.0182
    18.4494  18.4494  20.1558  20.6436  20.6436  26.7398  26.7496  26.7496
    28.9353  31.0818  31.0818  31.3431  31.8483  32.0577  32.0577  34.6148
    36.9725  36.9725

          k = 0.4500 0.4500 0.4500 (   973 PWs)   bands (ev):

   -24.1998  -7.7568  -7.7519  -7.7519   9.3248   9.4501   9.4501  15.2518
    17.8150  17.8150  19.7035  21.2740  21.2740  26.4812  26.5281  26.5281
    29.2757  30.7574  30.7574  31.4504  31.8232  32.3205  32.3205  34.4629
    37.4115  37.4115

          k = 0.4250 0.4250 0.4250 (   967 PWs)   bands (ev):

   -24.2146  -7.7364  -7.7258  -7.7258   9.3204   9.5902   9.5902  15.6278
    17.1137  17.1137  19.0457  21.9501  21.9501  26.1161  26.2400  26.2400
    29.7775  30.2316  30.2316  30.9143  32.4829  32.7833  32.7833  34.3180
    37.7920  37.7920

          k = 0.4000 0.4000 0.4000 (   979 PWs)   bands (ev):

   -24.2348  -7.7078  -7.6897  -7.6897   9.3295   9.7841   9.7841  16.1297
    16.4039  16.4039  18.2661  22.5721  22.5721  25.7017  25.9709  25.9709
    29.6157  29.6157  30.3189  30.3722  33.0525  33.3433  33.3433  34.4300
    37.5164  37.5165

          k = 0.3750 0.3750 0.3750 (   985 PWs)   bands (ev):

   -24.2600  -7.6706  -7.6439  -7.6439   9.3600  10.0294  10.0294  15.7051
    15.7051  16.7371  17.4318  23.0383  23.0383  25.2777  25.8206  25.8206
    28.9950  28.9950  29.7089  31.0140  33.1718  33.8938  33.8938  35.1401
    37.2582  37.2582

          k = 0.3500 0.3500 0.3500 (   976 PWs)   bands (ev):

   -24.2895  -7.6250  -7.5889  -7.5889   9.4148  10.3220  10.3220  15.0284
    15.0284  16.5779  17.4429  23.2376  23.2376  24.8721  25.8606  25.8606
    28.4616  28.4616  29.1085  31.6780  33.0517  34.3119  34.3119  36.2115
    37.2724  37.2724

          k = 0.3250 0.3250 0.3250 (   976 PWs)   bands (ev):

   -24.3226  -7.5707  -7.5256  -7.5256   9.4895  10.6546  10.6546  14.3836
    14.3836  15.7637  18.2024  23.1671  23.1671  24.5106  25.9602  25.9602
    28.1816  28.1816  28.5309  32.3493  32.8929  34.5168  34.5168  37.3996
    37.6050  37.6050

          k = 0.3000 0.3000 0.3000 (   973 PWs)   bands (ev):

   -24.3584  -7.5081  -7.4549  -7.4549   9.5701  11.0132  11.0132  13.7864
    13.7864  15.0152  18.9922  22.9373  22.9373  24.2272  25.8292  25.8292
    27.9843  28.3570  28.3570  32.7373  33.0153  34.5590  34.5590  38.0789
    38.0789  38.4755

          k = 0.2750 0.2750 0.2750 (   967 PWs)   bands (ev):

   -24.3961  -7.4376  -7.3779  -7.3779   9.6288  11.3606  11.3606  13.2734
    13.2734  14.3775  19.7518  22.6417  22.6417  24.0785  25.4585  25.4585
    27.4733  28.9160  28.9160  32.5859  33.6383  34.5385  34.5385  38.1374
    38.1374  38.1545

          k = 0.2500 0.2500 0.2500 (   973 PWs)   bands (ev):

   -24.4349  -7.3600  -7.2963  -7.2963   9.6233  11.5817  11.5817  12.9585
    12.9585  13.9038  20.3827  22.3282  22.3282  24.1599  25.0089  25.0089
    27.0014  29.6538  29.6538  32.3941  34.1257  34.5125  34.5125  37.1076
    37.3387  37.3387

          k = 0.2250 0.2250 0.2250 (   964 PWs)   bands (ev):

   -24.4736  -7.2764  -7.2117  -7.2117   9.5091  11.4817  11.4817  13.0335
    13.0335  13.6456  20.7758  22.0196  22.0196  24.5704  24.5704  24.5766
    26.5707  30.4429  30.4429  32.0564  34.2414  34.4857  34.4857  36.2614
    36.2614  36.5982

          k = 0.2000 0.2000 0.2000 (   964 PWs)   bands (ev):

   -24.5114  -7.1887  -7.1262  -7.1262   9.2701  11.1473  11.1473  13.4067
    13.4067  13.6224  20.9175  21.7269  21.7269  24.1838  24.1838  25.3364
    26.1827  31.1546  31.1546  31.4135  34.0240  34.3638  34.3638  35.4013
    35.4013  36.8257

          k = 0.1750 0.1750 0.1750 (   961 PWs)   bands (ev):

   -24.5473  -7.0992  -7.0420  -7.0420   8.9354  10.7615  10.7615  13.8052
    13.8875  13.8875  20.8983  21.4557  21.4557  23.8736  23.8736  25.8385
    26.3395  30.4590  31.4686  31.4686  33.9000  34.1390  34.1390  35.1514
    35.1514  37.3847

          k = 0.1500 0.1500 0.1500 (   958 PWs)   bands (ev):

   -24.5804  -7.0106  -6.9616  -6.9616   8.5567  10.3915  10.3915  14.1391
    14.3979  14.3979  20.8073  21.2096  21.2096  23.6587  23.6587  25.5390
    27.4749  29.3686  30.9961  30.9961  33.9497  34.4675  34.4675  35.2653
    35.2653  38.0322

          k = 0.1250 0.1250 0.1250 (   964 PWs)   bands (ev):

   -24.6100  -6.9265  -6.8877  -6.8877   8.1803  10.0605  10.0605  14.5687
    14.8996  14.8996  20.6971  20.9909  20.9909  23.5561  23.5561  25.2848
    28.1257  28.8175  30.0671  30.0671  34.1311  35.2151  35.2151  35.5573
    35.5573  38.6756

          k = 0.1000 0.1000 0.1000 (   964 PWs)   bands (ev):

   -24.6352  -6.8505  -6.8227  -6.8227   7.8390   9.7794   9.7794  15.0446
    15.3626  15.3626  20.5955  20.8030  20.8030  23.5809  23.5809  25.0763
    27.1417  29.0349  29.0349  29.9617  34.4354  35.7371  35.7371  36.3253
    36.3253  39.2351

          k = 0.0750 0.0750 0.0750 (   967 PWs)   bands (ev):

   -24.6556  -6.7862  -6.7692  -6.7692   7.5550   9.5550   9.5550  15.5167
    15.7587  15.7587  20.5170  20.6497  20.6497  23.7440  23.7440  24.9138
    26.2144  28.0217  28.0217  31.0677  34.9006  36.1332  36.1332  37.3451
    37.3451  39.5251

          k = 0.0500 0.0500 0.0500 (   979 PWs)   bands (ev):

   -24.6705  -6.7374  -6.7293  -6.7293   7.3429   9.3916   9.3916  15.9280
    16.0621  16.0621  20.4681  20.5355  20.5355  24.0442  24.0442  24.7975
    25.4637  27.0856  27.0856  31.9379  35.5986  36.5646  36.5646  38.3136
    38.3136  39.3086

          k = 0.0250 0.0250 0.0250 (   970 PWs)   bands (ev):

   -24.6795  -6.7068  -6.7046  -6.7046   7.2121   9.2924   9.2924  16.2140
    16.2526  16.2526  20.4460  20.4647  20.4647  24.4418  24.4418  24.7278
    24.9649  26.2964  26.2964  32.4602  36.5331  37.0111  37.0111  38.4020
    38.4020  38.7324

          k = 0.0000 0.0000 0.0000 (   949 PWs)   bands (ev):

   -24.6825  -6.6963  -6.6963  -6.6963   7.1679   9.2591   9.2591  16.3175
    16.3175  16.3175  20.4408  20.4408  20.4408  24.7045  24.7045  24.7045
    24.7882  25.9017  25.9017  32.6280  37.2842  37.2842  37.2842  38.1302
    38.1302  38.1302

          k = 0.0500 0.0000 0.0000 (   969 PWs)   bands (ev):

   -24.6785  -6.7394  -6.6927  -6.6927   7.2259   9.2750   9.3322  16.1636
    16.1636  16.3262  20.1932  20.6005  20.6005  24.0264  24.7983  24.7983
    24.9937  26.0423  26.6518  32.4210  36.4865  36.4865  37.5694  37.6825
    38.9402  38.9402

          k = 0.1000 0.0000 0.0000 (   973 PWs)   bands (ev):

   -24.6668  -6.8620  -6.6823  -6.6823   7.3878   9.3217   9.5525  15.7744
    15.7744  16.3516  19.6076  20.9987  20.9987  23.0406  25.0861  25.0861
    25.3230  26.5926  27.8538  31.9156  35.4379  35.4379  36.5166  37.3753
    38.3105  39.9177

          k = 0.1500 0.0000 0.0000 (   980 PWs)   bands (ev):

   -24.6483  -7.0471  -6.6660  -6.6660   7.6242   9.3964   9.9161  15.2767
    15.2767  16.3918  18.9194  21.4893  21.4893  22.0948  25.5255  25.5781
    25.5781  27.5603  29.1607  31.2918  34.4523  34.4523  34.7335  36.2713
    39.3283  40.4755

          k = 0.2000 0.0000 0.0000 (   984 PWs)   bands (ev):

   -24.6250  -7.2712  -6.6453  -6.6453   7.9038   9.4943  10.3976  14.7605
    14.7605  16.4435  18.2791  21.2285  21.9710  21.9710  25.6510  26.2661
    26.2661  28.7198  30.5336  30.6589  32.8573  33.5735  33.5735  35.4046
    40.5142  40.6956

          k = 0.2500 0.0000 0.0000 (   976 PWs)   bands (ev):

   -24.5988  -7.5088  -6.6222  -6.6222   8.2053   9.6083  10.9326  14.2771
    14.2771  16.5022  17.7963  20.4583  22.4015  22.4015  25.6910  27.0995
    27.0995  29.8651  30.0722  31.1274  31.9562  32.8488  32.8488  34.7570
    40.7987  40.7987

          k = 0.3000 0.0000 0.0000 (   976 PWs)   bands (ev):

   -24.5724  -7.7366  -6.5989  -6.5989   8.5158   9.7288  11.4147  13.8555
    13.8555  16.5624  17.5839  19.7978  22.7733  22.7733  25.5178  27.9629
    27.9629  29.5621  29.5858  30.8695  32.3702  32.3702  33.4127  34.5496
    40.8247  40.8247

          k = 0.3500 0.0000 0.0000 (   976 PWs)   bands (ev):

   -24.5484  -7.9345  -6.5777  -6.5777   8.8215   9.8439  11.7291  13.5135
    13.5135  16.6180  17.7474  19.2609  23.0861  23.0861  24.8955  28.6477
    28.6477  28.7089  29.1478  31.1691  32.3186  32.3186  34.8804  35.1221
    40.5430  40.5430

          k = 0.4000 0.0000 0.0000 (   968 PWs)   bands (ev):

   -24.5292  -8.0869  -6.5608  -6.5608   9.0980   9.9400  11.8376  13.2622
    13.2622  16.6632  18.3051  18.8627  23.3317  23.3317  23.8105  28.4065
    28.8426  28.9606  28.9606  31.0100  32.8549  32.8549  36.3189  36.3645
    39.2628  39.2628

          k = 0.4500 0.0000 0.0000 (   976 PWs)   bands (ev):

   -24.5168  -8.1828  -6.5499  -6.5499   9.3024  10.0043  11.8195  13.1088
    13.1088  16.6926  18.6168  19.1068  22.6226  23.4924  23.4924  28.3940
    28.6556  29.0038  29.0038  30.7642  33.7819  33.7819  37.6369  37.8195
    37.8195  37.9229

          k = 0.5000 0.0000 0.0000 (   972 PWs)   bands (ev):

   -24.5125  -8.2154  -6.5462  -6.5462   9.3801  10.0269  11.7948  13.0573
    13.0573  16.7029  18.5336  19.6207  21.9736  23.5488  23.5488  28.4204
    28.5927  28.9920  28.9920  30.6560  34.3889  34.3889  37.0541  37.0541
    38.4088  39.4135

          k = 0.5000 0.0500 0.0000 (   968 PWs)   bands (ev):

   -24.5086  -8.2099  -6.5863  -6.5428   9.4497  10.0910  11.5459  13.0718
    13.2438  16.5826  18.6768  19.6035  21.9907  23.3547  23.7547  27.7721
    28.4613  28.7178  29.8423  31.2397  34.2288  34.3998  36.6521  37.1057
    37.8125  39.5396

          k = 0.5000 0.1000 0.0000 (   968 PWs)   bands (ev):

   -24.4971  -8.1940  -6.7009  -6.5330   9.6140  10.3197  11.0311  13.1144
    13.5875  16.2630  19.0842  19.5446  22.0398  22.8985  24.3310  26.8295
    27.5899  29.4875  30.8677  32.2363  33.8102  34.4316  35.9458  36.3894
    37.2647  39.6139

          k = 0.5000 0.1500 0.0000 (   970 PWs)   bands (ev):

   -24.4793  -8.1690  -6.8745  -6.5176   9.7894  10.4536  10.7734  13.1823
    13.9252  15.8304  19.4242  19.6928  22.1121  22.3899  25.1919  25.9442
    26.7735  30.5171  31.8685  33.0449  33.2413  34.4819  34.7021  35.5181
    37.5425  39.7135

          k = 0.5000 0.2000 0.0000 (   968 PWs)   bands (ev):

   -24.4566  -8.1371  -7.0854  -6.4981   9.8875   9.9528  11.4384  13.2710
    14.2318  15.3624  19.2208  20.4075  21.9708  22.1853  25.1343  26.1351
    26.2599  31.4075  32.6653  32.7954  33.0876  33.2083  34.5470  35.9661
    37.9538  39.8278

          k = 0.5000 0.2500 0.0000 (   956 PWs)   bands (ev):

   -24.4312  -8.1013  -7.3101  -6.4764   9.3689  10.1150  12.2536  13.3738
    14.5120  14.9121  18.9406  21.1074  21.7053  22.2089  24.4133  25.8080
    27.4822  30.4320  32.3345  32.5932  33.4736  33.6006  34.6213  37.0456
    38.5006  39.8731

          k = 0.5000 0.3000 0.0000 (   962 PWs)   bands (ev):

   -24.4057  -8.0652  -7.5261  -6.4545   8.9202  10.2771  13.1477  13.4817
    14.5127  14.7691  18.6394  21.5939  21.6737  22.1141  23.7947  25.9347
    28.7274  28.8247  31.7983  32.0224  34.2514  34.6978  34.8674  38.2280
    39.1446  39.4131

          k = 0.5000 0.3500 0.0000 (   966 PWs)   bands (ev):

   -24.3825  -8.0321  -7.7144  -6.4347   8.5569  10.4299  13.5840  14.0270
    14.1854  14.9982  18.4075  21.6149  21.8868  22.0723  23.2924  26.5094
    27.0251  30.2647  31.3783  31.5179  34.7413  34.7691  36.3767  38.1165
    39.2079  39.7859

          k = 0.5000 0.4000 0.0000 (   980 PWs)   bands (ev):

   -24.3639  -8.0056  -7.8598  -6.4188   8.2900  10.5584  13.6690  13.9435
    14.7585  15.1850  18.3330  21.6392  21.7716  22.3126  22.9204  25.4466
    27.3242  31.0701  31.1322  31.7833  34.8282  35.0811  36.6956  37.9143
    38.4237  39.7948

          k = 0.5000 0.4500 0.0000 (   976 PWs)   bands (ev):

   -24.3519  -7.9885  -7.9513  -6.4086   8.1270  10.6451  13.7255  13.7953
    15.2107  15.3096  18.4189  21.4497  22.1114  22.4487  22.6911  24.1007
    28.0764  30.8810  30.8950  33.3534  34.8735  35.2817  35.5856  36.7751
    39.3559  40.0703

          k = 0.5000 0.5000 0.0000 (   992 PWs)   bands (ev):

   -24.3478  -7.9826  -7.9826  -6.4051   8.0721  10.6759  13.7454  13.7454
    15.3537  15.3537  18.4930  21.3800  22.4930  22.4930  22.6136  23.3440
    28.3989  30.8171  30.8171  34.5615  35.0732  35.1437  35.3482  35.3482
    40.1513  40.1513

          k = 0.4750 0.4750 0.0000 (   986 PWs)   bands (ev):

   -24.3499  -7.9767  -7.9757  -6.4069   8.0995  10.6603  13.7491  13.7566
    15.3062  15.3093  18.4507  21.4121  22.1421  22.6154  22.6524  23.7442
    28.2435  30.6361  31.0608  33.9452  34.4656  35.3674  35.9375  35.9586
    39.8609  39.9321

          k = 0.4500 0.4500 0.0000 (   974 PWs)   bands (ev):

   -24.3560  -7.9592  -7.9552  -6.4121   8.1810  10.6143  13.7608  13.7903
    15.1625  15.1783  18.3508  21.3898  21.7333  22.7681  22.9562  24.4082
    27.9162  30.1799  31.6611  33.0467  33.7451  35.9497  36.6857  36.7388
    39.2231  39.3637

          k = 0.4250 0.4250 0.0000 (   978 PWs)   bands (ev):

   -24.3662  -7.9302  -7.9214  -6.4208   8.3139  10.5400  13.7817  13.8461
    14.9229  14.9671  18.2478  20.9755  21.8155  22.9581  23.4585  25.0840
    27.6130  29.5921  32.1265  32.4532  33.0279  36.7372  37.4068  37.4352
    38.4713  38.5972

          k = 0.4000 0.4000 0.0000 (   968 PWs)   bands (ev):

   -24.3801  -7.8897  -7.8748  -6.4327   8.4930  10.4417  13.8139  13.9236
    14.5956  14.6854  18.1837  20.5409  22.0261  23.2181  24.0666  25.6666
    27.4926  28.9683  31.2118  32.3188  33.3594  37.4175  37.7372  37.8940
    37.8947  38.1046

          k = 0.3750 0.3750 0.0000 (   964 PWs)   bands (ev):

   -24.3973  -7.8380  -7.8162  -6.4474   8.7089  10.3266  13.8597  14.0222
    14.1982  14.3472  18.1757  20.1858  22.2396  23.5416  24.7321  26.0355
    27.7148  28.3668  30.3152  31.6201  34.3388  36.7581  36.8484  38.0317
    38.6862  38.7504

          k = 0.3500 0.3500 0.0000 (   960 PWs)   bands (ev):

   -24.4174  -7.7756  -7.7466  -6.4647   8.9425  10.2083  13.7530  13.9218
    13.9720  14.1410  18.2240  19.9219  22.4049  23.9183  25.3918  26.2446
    27.8501  28.2563  29.4485  30.9333  35.2901  35.9335  36.0484  37.9205
    39.2907  39.6029

          k = 0.3250 0.3250 0.0000 (   961 PWs)   bands (ev):

   -24.4400  -7.7031  -7.6673  -6.4840   9.1524  10.1179  13.2806  13.5875
    14.0025  14.2789  18.3217  19.7474  22.4896  24.3297  25.8850  26.4850
    27.5741  28.6299  28.9345  30.2605  34.9768  35.1091  36.5845  37.6852
    39.3809  39.6393

          k = 0.3000 0.3000 0.0000 (   971 PWs)   bands (ev):

   -24.4644  -7.6213  -7.5798  -6.5051   9.2579  10.1147  12.7982  13.2323
    14.1041  14.4344  18.4609  19.6537  22.4920  24.7343  25.9184  26.8423
    27.8225  27.8998  29.6040  29.6262  34.2025  34.3075  37.4027  37.6191
    38.3875  39.7254

          k = 0.2750 0.2750 0.0000 (   979 PWs)   bands (ev):

   -24.4900  -7.5314  -7.4858  -6.5274   9.2062  10.2123  12.3189  12.9623
    14.2282  14.6056  18.6339  19.6286  22.4382  25.0215  25.6174  27.3093
    27.3672  28.4498  28.9668  30.2295  33.5543  33.5559  37.1111  37.1452
    38.8623  39.5803

          k = 0.2500 0.2500 0.0000 (   983 PWs)   bands (ev):

   -24.5162  -7.4350  -7.3872  -6.5501   9.0476  10.3016  11.8530  12.8504
    14.3759  14.7903  18.8338  19.6579  22.3648  24.9721  25.2472  27.2494
    27.8295  28.3519  29.1390  30.5928  32.9125  33.1967  36.0569  36.8305
    39.3056  39.8397

          k = 0.2250 0.2250 0.0000 (   973 PWs)   bands (ev):

   -24.5424  -7.3340  -7.2863  -6.5729   8.8356  10.2855  11.4086  12.9510
    14.5477  14.9855  19.0534  19.7256  22.3063  24.5461  24.8956  27.5839
    27.7634  28.2795  29.6580  30.6545  32.5282  33.1623  35.1121  36.5728
    38.9828  39.7469

          k = 0.2000 0.2000 0.0000 (   971 PWs)   bands (ev):

   -24.5679  -7.2308  -7.1856  -6.5952   8.5948  10.1630  10.9925  13.2472
    14.7427  15.1875  19.2851  19.8152  22.2921  23.9534  24.5920  27.2057
    28.1573  28.4149  29.7286  30.7715  32.6591  32.8371  34.8264  36.3469
    38.6567  39.4568

          k = 0.1750 0.1750 0.0000 (   965 PWs)   bands (ev):

   -24.5920  -7.1283  -7.0876  -6.6164   8.3389   9.9876  10.6106  13.6740
    14.9591  15.3920  19.5197  19.9109  22.3465  23.3223  24.3515  26.6847
    28.1080  28.8367  29.3591  31.2484  31.9488  33.2898  35.2997  36.1611
    38.3501  39.1946

          k = 0.1500 0.1500 0.0000 (   965 PWs)   bands (ev):

   -24.6143  -7.0295  -6.9951  -6.6359   8.0807   9.8054  10.2680  14.1705
    15.1934  15.5933  19.7468  20.0017  22.4865  22.7021  24.1857  26.2067
    27.5553  28.8001  29.5660  30.8600  32.0364  34.1674  36.0254  36.0256
    38.0747  38.9670

          k = 0.1250 0.1250 0.0000 (   969 PWs)   bands (ev):

   -24.6341  -6.9377  -6.9108  -6.6534   7.8335   9.6405   9.9694  14.6906
    15.4397  15.7848  19.9546  20.0849  22.1167  22.7198  24.1043  25.7793
    26.9247  28.1895  29.8118  30.3094  32.9111  35.1525  35.9550  36.8213
    37.8365  38.7793

          k = 0.1000 0.1000 0.0000 (   971 PWs)   bands (ev):

   -24.6510  -6.8564  -6.8375  -6.6683   7.6107   9.5029   9.7189  15.1953
    15.6884  15.9589  20.1318  20.1655  21.5844  23.0441  24.1142  25.4110
    26.2949  27.5817  28.8007  31.0298  33.8596  35.9727  36.1853  37.6225
    37.6391  38.6415

          k = 0.0750 0.0750 0.0000 (   971 PWs)   bands (ev):

   -24.6646  -6.7890  -6.7775  -6.6803   7.4244   9.3958   9.5201  15.6465
    15.9247  16.1071  20.2504  20.2702  21.1244  23.4504  24.2148  25.1110
    25.7148  27.0052  27.8545  31.6779  34.8429  36.1132  37.2048  37.4844
    38.3484  38.5939

          k = 0.0500 0.0500 0.0000 (   973 PWs)   bands (ev):

   -24.6745  -6.7384  -6.7330  -6.6891   7.2842   9.3197   9.3758  16.0055
    16.1269  16.2209  20.3382  20.3667  20.7610  23.9222  24.3913  24.8883
    25.2328  26.4871  26.9949  32.1923  35.8261  36.4162  37.3733  37.9449
    38.6788  38.8901

          k = 0.0250 0.0250 0.0000 (   961 PWs)   bands (ev):

   -24.6805  -6.7070  -6.7055  -6.6945   7.1973   9.2742   9.2884  16.2373
    16.2668  16.2929  20.4113  20.4226  20.5239  24.4150  24.5963  24.7509
    24.9055  26.0777  26.2690  32.5179  36.7420  36.8888  37.3065  38.1139
    38.4452  38.6598

          k = 0.0000 0.0000 0.0000 (   949 PWs)   bands (ev):

   -24.6825  -6.6963  -6.6963  -6.6963   7.1679   9.2591   9.2591  16.3175
    16.3175  16.3175  20.4408  20.4408  20.4408  24.7045  24.7045  24.7045
    24.7882  25.9017  25.9017  32.6280  37.2842  37.2842  37.2842  38.1302
    38.1302  38.1302

          k = 0.0250 0.0250 0.0250 (   970 PWs)   bands (ev):

   -24.6795  -6.7068  -6.7046  -6.7046   7.2121   9.2924   9.2924  16.2140
    16.2526  16.2526  20.4460  20.4647  20.4647  24.4418  24.4418  24.7278
    24.9649  26.2964  26.2964  32.4602  36.5331  37.0111  37.0111  38.4020
    38.4020  38.7324

          k = 0.0500 0.0500 0.0500 (   979 PWs)   bands (ev):

   -24.6705  -6.7374  -6.7293  -6.7293   7.3429   9.3916   9.3916  15.9280
    16.0621  16.0621  20.4681  20.5355  20.5355  24.0442  24.0442  24.7975
    25.4637  27.0856  27.0856  31.9379  35.5986  36.5646  36.5646  38.3136
    38.3136  39.3086

          k = 0.0750 0.0750 0.0750 (   967 PWs)   bands (ev):

   -24.6556  -6.7862  -6.7692  -6.7692   7.5550   9.5550   9.5550  15.5167
    15.7587  15.7587  20.5170  20.6497  20.6497  23.7440  23.7440  24.9138
    26.2144  28.0217  28.0217  31.0677  34.9006  36.1332  36.1332  37.3451
    37.3451  39.5250

          k = 0.1000 0.1000 0.1000 (   964 PWs)   bands (ev):

   -24.6352  -6.8505  -6.8227  -6.8227   7.8390   9.7794   9.7794  15.0446
    15.3626  15.3626  20.5955  20.8030  20.8030  23.5809  23.5809  25.0763
    27.1417  29.0349  29.0349  29.9617  34.4354  35.7371  35.7371  36.3253
    36.3253  39.2351

          k = 0.1250 0.1250 0.1250 (   964 PWs)   bands (ev):

   -24.6100  -6.9265  -6.8877  -6.8877   8.1803  10.0605  10.0605  14.5687
    14.8996  14.8996  20.6971  20.9909  20.9909  23.5561  23.5561  25.2848
    28.1257  28.8175  30.0671  30.0671  34.1311  35.2151  35.2151  35.5573
    35.5573  38.6756

          k = 0.1500 0.1500 0.1500 (   958 PWs)   bands (ev):

   -24.5804  -7.0106  -6.9616  -6.9616   8.5567  10.3915  10.3915  14.1391
    14.3979  14.3979  20.8073  21.2096  21.2096  23.6587  23.6587  25.5390
    27.4749  29.3686  30.9961  30.9961  33.9497  34.4675  34.4675  35.2653
    35.2653  38.0322

          k = 0.1750 0.1750 0.1750 (   961 PWs)   bands (ev):

   -24.5473  -7.0992  -7.0420  -7.0420   8.9354  10.7615  10.7615  13.8052
    13.8875  13.8875  20.8983  21.4557  21.4557  23.8736  23.8736  25.8385
    26.3395  30.4590  31.4686  31.4686  33.9000  34.1390  34.1390  35.1514
    35.1514  37.3847

          k = 0.2000 0.2000 0.2000 (   964 PWs)   bands (ev):

   -24.5114  -7.1887  -7.1262  -7.1262   9.2701  11.1473  11.1473  13.4067
    13.4067  13.6224  20.9175  21.7269  21.7269  24.1838  24.1838  25.3364
    26.1827  31.1546  31.1546  31.4135  34.0240  34.3638  34.3638  35.4013
    35.4013  36.8257

          k = 0.2250 0.2250 0.2250 (   964 PWs)   bands (ev):

   -24.4736  -7.2764  -7.2117  -7.2117   9.5091  11.4817  11.4817  13.0335
    13.0335  13.6456  20.7758  22.0196  22.0196  24.5704  24.5704  24.5766
    26.5707  30.4429  30.4429  32.0564  34.2414  34.4857  34.4857  36.2614
    36.2614  36.5982

          k = 0.2500 0.2500 0.2500 (   973 PWs)   bands (ev):

   -24.4349  -7.3600  -7.2963  -7.2963   9.6233  11.5817  11.5817  12.9585
    12.9585  13.9038  20.3827  22.3282  22.3282  24.1599  25.0089  25.0089
    27.0014  29.6538  29.6538  32.3941  34.1257  34.5125  34.5125  37.1076
    37.3387  37.3387

          k = 0.2750 0.2750 0.2750 (   967 PWs)   bands (ev):

   -24.3961  -7.4376  -7.3779  -7.3779   9.6288  11.3606  11.3606  13.2734
    13.2734  14.3775  19.7518  22.6417  22.6417  24.0785  25.4585  25.4585
    27.4733  28.9160  28.9160  32.5859  33.6383  34.5385  34.5385  38.1374
    38.1374  38.1545

          k = 0.3000 0.3000 0.3000 (   973 PWs)   bands (ev):

   -24.3584  -7.5081  -7.4549  -7.4549   9.5701  11.0132  11.0132  13.7864
    13.7864  15.0152  18.9922  22.9373  22.9373  24.2272  25.8292  25.8292
    27.9843  28.3570  28.3570  32.7373  33.0153  34.5590  34.5590  38.0789
    38.0789  38.4755

          k = 0.3250 0.3250 0.3250 (   976 PWs)   bands (ev):

   -24.3226  -7.5707  -7.5256  -7.5256   9.4895  10.6546  10.6546  14.3836
    14.3836  15.7637  18.2024  23.1671  23.1671  24.5106  25.9602  25.9602
    28.1816  28.1816  28.5309  32.3493  32.8929  34.5168  34.5168  37.3996
    37.6050  37.6050

          k = 0.3500 0.3500 0.3500 (   976 PWs)   bands (ev):

   -24.2895  -7.6250  -7.5889  -7.5889   9.4148  10.3220  10.3220  15.0284
    15.0284  16.5779  17.4429  23.2376  23.2376  24.8721  25.8606  25.8606
    28.4616  28.4616  29.1085  31.6780  33.0517  34.3119  34.3119  36.2115
    37.2724  37.2724

          k = 0.3750 0.3750 0.3750 (   985 PWs)   bands (ev):

   -24.2600  -7.6706  -7.6439  -7.6439   9.3600  10.0294  10.0294  15.7051
    15.7051  16.7371  17.4318  23.0383  23.0383  25.2777  25.8206  25.8206
    28.9950  28.9950  29.7089  31.0140  33.1718  33.8938  33.8938  35.1401
    37.2582  37.2582

          k = 0.4000 0.4000 0.4000 (   979 PWs)   bands (ev):

   -24.2348  -7.7078  -7.6897  -7.6897   9.3295   9.7841   9.7841  16.1297
    16.4039  16.4039  18.2661  22.5721  22.5721  25.7017  25.9709  25.9709
    29.6157  29.6157  30.3189  30.3722  33.0525  33.3433  33.3433  34.4300
    37.5164  37.5164

          k = 0.4250 0.4250 0.4250 (   967 PWs)   bands (ev):

   -24.2146  -7.7364  -7.7258  -7.7258   9.3204   9.5902   9.5902  15.6278
    17.1137  17.1137  19.0457  21.9501  21.9501  26.1161  26.2400  26.2400
    29.7775  30.2316  30.2316  30.9143  32.4829  32.7833  32.7833  34.3180
    37.7920  37.7920

          k = 0.4500 0.4500 0.4500 (   973 PWs)   bands (ev):

   -24.1998  -7.7568  -7.7519  -7.7519   9.3248   9.4501   9.4501  15.2518
    17.8150  17.8150  19.7035  21.2740  21.2740  26.4812  26.5281  26.5281
    29.2757  30.7574  30.7574  31.4504  31.8232  32.3205  32.3205  34.4629
    37.4115  37.4115

          k = 0.4750 0.4750 0.4750 (   968 PWs)   bands (ev):

   -24.1907  -7.7689  -7.7677  -7.7677   9.3332   9.3654   9.3654  15.0182
    18.4494  18.4494  20.1558  20.6436  20.6436  26.7398  26.7496  26.7496
    28.9353  31.0818  31.0818  31.3431  31.8483  32.0577  32.0577  34.6148
    36.9725  36.9725

          k = 0.5000 0.5000 0.5000 (   968 PWs)   bands (ev):

   -24.1877  -7.7730  -7.7730  -7.7730   9.3371   9.3371   9.3371  14.9389
    18.7735  18.7735  20.3191  20.3191  20.3191  26.8337  26.8337  26.8337
    28.8156  31.1665  31.1665  31.1665  32.0006  32.0006  32.0006  34.6763
    36.8040  36.8040

     Writing all to output data dir ./work/POSCAR.save/

     init_run     :      0.16s CPU      0.19s WALL (       1 calls)
     electrons    :      2.93s CPU      3.25s WALL (       1 calls)

     Called by init_run:
     wfcinit      :      0.00s CPU      0.01s WALL (       1 calls)
     potinit      :      0.07s CPU      0.08s WALL (       1 calls)
     hinit0       :      0.08s CPU      0.08s WALL (       1 calls)

     Called by electrons:
     c_bands      :      2.93s CPU      3.25s WALL (       1 calls)
     v_of_rho     :      0.00s CPU      0.00s WALL (       1 calls)
     newd         :      0.00s CPU      0.00s WALL (       1 calls)
     PAW_pot      :      0.03s CPU      0.04s WALL (       1 calls)

     Called by c_bands:
     init_us_2    :      0.00s CPU      0.00s WALL (      91 calls)
     init_us_2:cp :      0.00s CPU      0.00s WALL (      91 calls)
     cegterg      :      2.72s CPU      2.83s WALL (     119 calls)

     Called by *egterg:
     cdiaghg      :      1.02s CPU      1.06s WALL (    1807 calls)
     h_psi        :      1.38s CPU      1.44s WALL (    1926 calls)
     s_psi        :      0.02s CPU      0.02s WALL (    1926 calls)
     g_psi        :      0.01s CPU      0.01s WALL (    1716 calls)

     Called by h_psi:
     h_psi:calbec :      0.07s CPU      0.07s WALL (    1926 calls)
     vloc_psi     :      1.28s CPU      1.33s WALL (    1926 calls)
     add_vuspsi   :      0.02s CPU      0.02s WALL (    1926 calls)

     General routines
     calbec       :      0.07s CPU      0.07s WALL (    1926 calls)
     fft          :      0.05s CPU      0.05s WALL (      13 calls)
     ffts         :      0.03s CPU      0.03s WALL (       1 calls)
     fftw         :      1.17s CPU      1.22s WALL (   52064 calls)
     interpolate  :      0.03s CPU      0.03s WALL (       1 calls)
     davcio       :      0.00s CPU      0.15s WALL (     182 calls)

     Parallel routines

     PWSCF        :      3.46s CPU      5.08s WALL


   This run was terminated on:  22:41: 2  15May2024            

=------------------------------------------------------------------------------=
   JOB DONE.
=------------------------------------------------------------------------------=
