
     Program PWSCF v.7.1 starts on 15May2024 at 22:40:54 

     This program is part of the open-source Quantum ESPRESSO suite
     for quantum simulation of materials; please cite
         "P. Giannozzi et al., J. Phys.:Condens. Matter 21 395502 (2009);
         "P. Giannozzi et al., J. Phys.:Condens. Matter 29 465901 (2017);
         "P. Giannozzi et al., J. Chem. Phys. 152 154105 (2020);
          URL http://www.quantum-espresso.org", 
     in publications or presentations arising from this work. More details at
     http://www.quantum-espresso.org/quote

     Parallel version (MPI & OpenMP), running on      10 processor cores
     Number of MPI processes:                10
     Threads/MPI process:                     1

     MPI processes distributed on     1 nodes
     14548 MiB available memory on the printing compute node when the environment starts

     Waiting for input...
     Reading input from standard input

     Current dimensions of program PWSCF are:
     Max number of different atomic species (ntypx) = 10
     Max number of k-points (npk) =  40000
     Max angular momentum in pseudopotentials (lmaxx) =  4
     file Ce.pbe-spdn-kjpaw_psl.1.0.0.UPF: wavefunction(s)  5D renormalized
     Message from routine setup:
     using ibrav=0 with symmetry is DISCOURAGED, use correct ibrav instead

     R & G space division:  proc/nbgrp/npool/nimage =      10
     Subspace diagonalization in iterative solution of the eigenvalue problem:
     a serial algorithm will be used


     Parallelization info
     --------------------
     sticks:   dense  smooth     PW     G-vecs:    dense   smooth      PW
     Min          56      48     14                 1037      780     134
     Max          58      49     15                 1040      783     137
     Sum         577     481    145                10395     7809    1357

     Using Slab Decomposition



     bravais-lattice index     =            0
     lattice parameter (alat)  =       6.3447  a.u.
     unit-cell volume          =     255.4026 (a.u.)^3
     number of atoms/cell      =            1
     number of atomic types    =            1
     number of electrons       =        11.00
     number of Kohn-Sham states=           26
     kinetic-energy cutoff     =      37.0000  Ry
     charge density cutoff     =     179.0000  Ry
     scf convergence threshold =      7.3E-05
     mixing beta               =       0.7000
     number of iterations used =            8  plain     mixing
     Exchange-correlation= SLA  PW   PBX  PBC
                           (   1   4   3   4   0   0   0)

     celldm(1)=   6.344661  celldm(2)=   0.000000  celldm(3)=   0.000000
     celldm(4)=   0.000000  celldm(5)=   0.000000  celldm(6)=   0.000000

     crystal axes: (cart. coord. in units of alat)
               a(1) = (   1.000000   0.000000   0.000000 )  
               a(2) = (   0.000000   1.000000   0.000000 )  
               a(3) = (   0.000000   0.000000   1.000000 )  

     reciprocal axes: (cart. coord. in units 2 pi/alat)
               b(1) = (  1.000000  0.000000  0.000000 )  
               b(2) = (  0.000000  1.000000  0.000000 )  
               b(3) = (  0.000000  0.000000  1.000000 )  


     PseudoPot. # 1 for Ce read from file:
     ./../../../../pseudo/psl100_PBE/Ce.pbe-spdn-kjpaw_psl.1.0.0.UPF
     MD5 check sum: 1a25380276e46fcecd5a173acdad072c
     Pseudo is Projector augmented-wave + core cor, Zval = 11.0
     Generated using 'atomic' code by A. Dal Corso  v.7.2
     Shape of augmentation charge: PSQ
     Using radial grid of 1255 points,  6 beta functions with: 
                l(1) =   0
                l(2) =   0
                l(3) =   1
                l(4) =   1
                l(5) =   2
                l(6) =   2
     Q(r) pseudized with 0 coefficients 


     atomic species   valence    mass     pseudopotential
        Ce            11.00   140.11600     Ce( 1.00)

     48 Sym. Ops., with inversion, found



   Cartesian axes

     site n.     atom                  positions (alat units)
         1           Ce  tau(   1) = (   0.0000000   0.0000000   0.0000000  )

     number of k points=    35  Methfessel-Paxton smearing, width (Ry)=  0.0200
                       cart. coord. in units 2pi/alat
        k(    1) = (   0.0000000   0.0000000   0.0000000), wk =   0.0027435
        k(    2) = (   0.0000000   0.0000000   0.1111111), wk =   0.0164609
        k(    3) = (   0.0000000   0.0000000   0.2222222), wk =   0.0164609
        k(    4) = (   0.0000000   0.0000000   0.3333333), wk =   0.0164609
        k(    5) = (   0.0000000   0.0000000   0.4444444), wk =   0.0164609
        k(    6) = (   0.0000000   0.1111111   0.1111111), wk =   0.0329218
        k(    7) = (   0.0000000   0.1111111   0.2222222), wk =   0.0658436
        k(    8) = (   0.0000000   0.1111111   0.3333333), wk =   0.0658436
        k(    9) = (   0.0000000   0.1111111   0.4444444), wk =   0.0658436
        k(   10) = (   0.0000000   0.2222222   0.2222222), wk =   0.0329218
        k(   11) = (   0.0000000   0.2222222   0.3333333), wk =   0.0658436
        k(   12) = (   0.0000000   0.2222222   0.4444444), wk =   0.0658436
        k(   13) = (   0.0000000   0.3333333   0.3333333), wk =   0.0329218
        k(   14) = (   0.0000000   0.3333333   0.4444444), wk =   0.0658436
        k(   15) = (   0.0000000   0.4444444   0.4444444), wk =   0.0329218
        k(   16) = (   0.1111111   0.1111111   0.1111111), wk =   0.0219479
        k(   17) = (   0.1111111   0.1111111   0.2222222), wk =   0.0658436
        k(   18) = (   0.1111111   0.1111111   0.3333333), wk =   0.0658436
        k(   19) = (   0.1111111   0.1111111   0.4444444), wk =   0.0658436
        k(   20) = (   0.1111111   0.2222222   0.2222222), wk =   0.0658436
        k(   21) = (   0.1111111   0.2222222   0.3333333), wk =   0.1316872
        k(   22) = (   0.1111111   0.2222222   0.4444444), wk =   0.1316872
        k(   23) = (   0.1111111   0.3333333   0.3333333), wk =   0.0658436
        k(   24) = (   0.1111111   0.3333333   0.4444444), wk =   0.1316872
        k(   25) = (   0.1111111   0.4444444   0.4444444), wk =   0.0658436
        k(   26) = (   0.2222222   0.2222222   0.2222222), wk =   0.0219479
        k(   27) = (   0.2222222   0.2222222   0.3333333), wk =   0.0658436
        k(   28) = (   0.2222222   0.2222222   0.4444444), wk =   0.0658436
        k(   29) = (   0.2222222   0.3333333   0.3333333), wk =   0.0658436
        k(   30) = (   0.2222222   0.3333333   0.4444444), wk =   0.1316872
        k(   31) = (   0.2222222   0.4444444   0.4444444), wk =   0.0658436
        k(   32) = (   0.3333333   0.3333333   0.3333333), wk =   0.0219479
        k(   33) = (   0.3333333   0.3333333   0.4444444), wk =   0.0658436
        k(   34) = (   0.3333333   0.4444444   0.4444444), wk =   0.0658436
        k(   35) = (   0.4444444   0.4444444   0.4444444), wk =   0.0219479

     Dense  grid:    10395 G-vectors     FFT dimensions: (  27,  27,  27)

     Smooth grid:     7809 G-vectors     FFT dimensions: (  25,  25,  25)

     Estimated max dynamical RAM per process >       6.03 MB

     Estimated total dynamical RAM >      60.34 MB

     Initial potential from superposition of free atoms

     starting charge      10.9735, renormalised to      11.0000
     Starting wfcs are   13 randomized atomic wfcs +   13 random wfcs
     Checking if some PAW data can be deallocated... 

     total cpu time spent up to now is        0.5 secs

     per-process dynamical memory:    13.5 Mb

     Self-consistent Calculation

     iteration #  1     ecut=    37.00 Ry     beta= 0.70
     Davidson diagonalization with overlap
     ethr =  1.00E-02,  avg # of iterations =  6.9

     Threshold (ethr) on eigenvalues was too large:
     Diagonalizing with lowered threshold

     Davidson diagonalization with overlap
     ethr =  4.60E-05,  avg # of iterations =  3.6

     total cpu time spent up to now is        1.3 secs

     total energy              =    -471.69944893 Ry
     estimated scf accuracy    <       0.00524650 Ry

     iteration #  2     ecut=    37.00 Ry     beta= 0.70
     Davidson diagonalization with overlap
     ethr =  4.77E-05,  avg # of iterations =  1.7

     total cpu time spent up to now is        1.5 secs

     total energy              =    -471.70062125 Ry
     estimated scf accuracy    <       0.00031642 Ry

     iteration #  3     ecut=    37.00 Ry     beta= 0.70
     Davidson diagonalization with overlap
     ethr =  2.88E-06,  avg # of iterations =  3.0

     total cpu time spent up to now is        1.8 secs

     End of self-consistent calculation

          k = 0.0000 0.0000 0.0000 (   949 PWs)   bands (ev):

   -24.6768  -6.6923  -6.6923  -6.6923   7.1670   9.2591   9.2591  16.3189
    16.3189  16.3189  20.4383  20.4383  20.4383  24.7018  24.7018  24.7018
    24.7934  25.9020  25.9020  32.6266  37.2812  37.2812  37.2812  38.1328
    38.1328  38.1328

          k = 0.0000 0.0000 0.1111 (   973 PWs)   bands (ev):

   -24.6574  -6.8946  -6.6751  -6.6751   7.4343   9.3360   9.6213  15.6701
    15.6701  16.3608  19.4556  21.1022  21.1022  22.8231  25.1752  25.1752
    25.3817  26.7802  28.1367  31.7803  35.2107  35.2107  36.1555  37.0945
    38.5156  40.0874

          k = 0.0000 0.0000 0.2222 (   976 PWs)   bands (ev):

   -24.6077  -7.3730  -6.6311  -6.6311   8.0352   9.5436  10.6345  14.5397
    14.5397  16.4706  18.0381  20.8719  22.1673  22.1673  25.6862  26.6224
    26.6224  29.2479  30.3879  31.1600  32.0579  33.2277  33.2277  35.0847
    40.7529  40.8411

          k = 0.0000 0.0000 0.3333 (   972 PWs)   bands (ev):

   -24.5501  -7.8696  -6.5803  -6.5803   8.7205   9.8071  11.6484  13.6177
    13.6177  16.6021  17.6471  19.4234  22.9860  22.9860  25.1656  28.4558
    28.4558  28.9318  29.2716  31.1399  32.2727  32.2727  34.3915  34.8399
    40.7241  40.7242

          k = 0.0000 0.0000 0.4444 (   968 PWs)   bands (ev):

   -24.5119  -8.1719  -6.5467  -6.5467   9.2839   9.9993  11.8247  13.1206
    13.1206  16.6921  18.6343  19.0168  22.7453  23.4762  23.4762  28.3907
    28.6674  29.0065  29.0065  30.7911  33.6740  33.6740  37.5021  37.7424
    37.9627  37.9628

          k = 0.0000 0.1111 0.1111 (   969 PWs)   bands (ev):

   -24.6380  -6.8871  -6.8647  -6.6580   7.7051   9.5605   9.8241  14.9756
    15.5791  15.8852  20.0555  20.1293  21.8117  22.8880  24.0962  25.5647
    26.5748  27.8489  29.2429  30.7131  33.4322  35.7242  35.9523  37.2702
    37.7187  38.6974

          k = 0.0000 0.1111 0.2222 (   963 PWs)   bands (ev):

   -24.5885  -7.3516  -6.8275  -6.6143   8.2982   9.8228  10.7413  13.8745
    14.5871  15.9033  18.6042  21.0122  21.4526  22.9947  25.4209  26.8287
    27.2360  29.1890  29.8192  31.5811  31.9044  32.2851  34.7262  36.9266
    37.1570  39.7816

          k = 0.0000 0.1111 0.3333 (   968 PWs)   bands (ev):

   -24.5311  -7.8451  -6.7726  -6.5638   8.9649  10.0985  11.3983  13.4800
    13.6823  16.0528  17.9643  20.0857  21.7617  23.8741  26.0600  27.3599
    27.4168  29.3464  29.4656  30.7711  32.8311  33.5611  34.4380  36.3494
    37.4831  40.5513

          k = 0.0000 0.1111 0.4444 (   972 PWs)   bands (ev):

   -24.4930  -8.1458  -6.7361  -6.5305   9.5454  10.3406  11.0306  13.1902
    13.6549  16.1597  18.9705  19.3740  22.1534  23.3215  24.4144  26.7366
    27.4755  29.6073  30.9586  32.1201  33.3504  33.9424  35.8518  36.6465
    38.1371  38.6803

          k = 0.0000 0.2222 0.2222 (   973 PWs)   bands (ev):

   -24.5394  -7.3190  -7.2714  -6.5713   8.8095  10.2765  11.3611  12.9747
    14.5684  15.0082  19.0775  19.7348  22.3026  24.4844  24.8567  27.6365
    27.6984  28.3164  29.6927  30.6566  32.5128  33.1594  35.0344  36.5469
    38.9439  39.7160

          k = 0.0000 0.2222 0.3333 (   970 PWs)   bands (ev):

   -24.4825  -7.7824  -7.2296  -6.5217   9.2905  10.2413  11.8170  13.4587
    13.8512  15.0193  18.3474  20.2195  21.7051  25.0783  25.8225  26.8196
    27.0864  28.1527  29.7571  31.4548  32.4899  34.6899  35.9289  37.2504
    37.8859  39.9892

          k = 0.0000 0.2222 0.4444 (   966 PWs)   bands (ev):

   -24.4448  -8.0787  -7.1871  -6.4890   9.6066  10.0536  11.7870  13.3768
    14.2806  15.1402  18.8280  20.7638  21.3152  23.2532  24.8538  26.0711
    26.7708  30.4813  32.0271  32.4207  32.7291  34.3573  34.9466  36.4271
    38.7234  39.0457

          k = 0.0000 0.3333 0.3333 (   961 PWs)   bands (ev):

   -24.4263  -7.7249  -7.6913  -6.4732   9.0889  10.1413  13.4401  13.7144
    13.9734  14.2310  18.2838  19.7954  22.4741  24.1891  25.7574  26.3933
    27.6198  28.7025  28.8936  30.4825  35.2287  35.3816  36.2522  37.7732
    39.5500  39.7149

          k = 0.0000 0.3333 0.4444 (   965 PWs)   bands (ev):

   -24.3890  -8.0004  -7.6589  -6.4411   8.7205  10.3446  13.6103  13.7192
    14.2663  14.7932  18.3734  20.7403  22.0883  23.1148  23.5317  26.3572
    27.5756  29.7156  30.0450  33.0607  33.2125  35.8003  36.2111  38.3072
    38.8061  39.5984

          k = 0.0000 0.4444 0.4444 (   974 PWs)   bands (ev):

   -24.3520  -7.9504  -7.9454  -6.4096   8.2055  10.5999  13.7646  13.8008
    15.1167  15.1372  18.3279  21.3219  21.7217  22.8021  23.0555  24.5604
    27.8414  30.0549  31.8238  32.8410  33.5852  36.1094  36.8475  36.9066
    39.0615  39.2078

          k = 0.1111 0.1111 0.1111 (   964 PWs)   bands (ev):

   -24.6188  -6.8791  -6.8464  -6.8464   7.9841   9.8978   9.8978  14.8306
    15.1639  15.1639  20.6395  20.8811  20.8811  23.5517  23.5517  25.1607
    27.5919  29.4356  29.4954  29.4954  34.2848  35.5526  35.5526  35.9158
    35.9158  39.0057

          k = 0.1111 0.1111 0.2222 (   961 PWs)   bands (ev):

   -24.5694  -7.3305  -6.8190  -6.7998   8.5773  10.0994  10.8291  13.9375
    13.9471  15.2469  19.3260  21.5273  21.6840  22.5607  25.2418  26.2355
    27.6838  28.5721  30.7441  31.9769  32.5317  33.1156  33.7352  36.1872
    37.8009  38.6613

          k = 0.1111 0.1111 0.3333 (   973 PWs)   bands (ev):

   -24.5122  -7.8209  -6.7639  -6.7458   9.2336  10.3669  11.3037  12.9276
    14.0078  15.4325  18.5050  20.5541  22.1158  23.3775  25.6550  26.6721
    28.1888  28.5196  30.2182  31.8862  32.1042  34.1648  34.5399  37.2813
    37.4502  38.6812

          k = 0.1111 0.1111 0.4444 (   963 PWs)   bands (ev):

   -24.4742  -8.1200  -6.7273  -6.7101   9.8897  10.5823  10.8010  12.3539
    14.6427  15.5680  19.1835  19.8500  22.2900  23.8039  23.9067  24.9828
    29.2519  29.7902  30.7580  32.5269  32.9487  34.7324  35.2634  36.8360
    36.9384  38.4274

          k = 0.1111 0.2222 0.2222 (   966 PWs)   bands (ev):

   -24.5204  -7.2980  -7.2509  -6.7626   9.0874  10.5686  11.3971  13.0290
    14.0585  14.2439  20.1295  20.3881  22.5080  23.6905  24.8912  26.2140
    26.8366  29.8929  30.1681  31.8939  32.8906  33.4841  35.1137  35.7828
    36.8414  38.2935

          k = 0.1111 0.2222 0.3333 (   969 PWs)   bands (ev):

   -24.4638  -7.7588  -7.2095  -6.7092   9.4965  10.5859  11.8269  12.6512
    14.2599  14.4094  19.1753  20.9208  21.9332  23.7674  25.5017  26.7286
    27.4911  28.7767  29.5038  31.7923  33.2154  34.5500  35.7583  37.4265
    37.9739  39.0186

          k = 0.1111 0.2222 0.4444 (   971 PWs)   bands (ev):

   -24.4262  -8.0536  -7.1674  -6.6738   9.6755  10.5428  11.8260  12.1606
    14.5479  15.4855  19.2723  21.2633  21.4450  22.8796  24.1719  25.9374
    27.9255  30.7068  31.4288  31.9968  33.5050  34.0711  34.8039  36.9679
    37.9074  38.2421

          k = 0.1111 0.3333 0.3333 (   975 PWs)   bands (ev):

   -24.4077  -7.7018  -7.6688  -6.6571   9.1849  10.6137  12.7286  12.7324
    14.2981  14.7117  19.2763  20.1748  21.9689  23.9339  25.8697  27.4741
    27.6933  27.9962  29.3939  29.6969  35.5870  36.5235  36.5407  37.0578
    38.0424  38.1583

          k = 0.1111 0.3333 0.4444 (   972 PWs)   bands (ev):

   -24.3705  -7.9761  -7.6367  -6.6226   8.8177  10.8604  12.3571  12.8828
    14.6356  16.0451  19.0373  20.4613  21.5964  23.1128  24.3642  27.3004
    27.4257  29.2081  30.1910  32.2940  33.3061  35.3501  36.8576  38.0801
    38.1504  39.0005

          k = 0.1111 0.4444 0.4444 (   974 PWs)   bands (ev):

   -24.3337  -7.9267  -7.9218  -6.5887   8.3149  11.1528  12.5500  12.5587
    16.2511  16.4242  18.6672  19.8341  21.8673  23.2820  24.2516  24.6455
    28.3862  30.1429  31.9237  32.1867  32.8367  36.0481  36.0651  36.2384
    38.4785  39.4993

          k = 0.2222 0.2222 0.2222 (   970 PWs)   bands (ev):

   -24.4719  -7.2632  -7.1985  -7.1985   9.4884  11.4516  11.4516  13.0647
    13.0647  13.6306  20.8059  21.9864  21.9864  24.5221  24.5221  24.6436
    26.5230  30.5300  30.5300  32.0039  34.2260  34.4801  34.4801  36.1461
    36.1461  36.5942

          k = 0.2222 0.2222 0.3333 (   976 PWs)   bands (ev):

   -24.4158  -7.6984  -7.1759  -7.1377   9.6412  11.3121  11.6352  12.3820
    13.5344  14.6823  20.0561  21.3727  22.7181  23.7439  24.4855  26.8689
    27.7396  27.8161  30.6978  31.7680  33.1257  34.5609  36.2177  37.0835
    38.0388  38.0688

          k = 0.2222 0.2222 0.4444 (   968 PWs)   bands (ev):

   -24.3785  -7.9890  -7.1343  -7.0974   9.6160  11.0184  11.5093  12.2674
    13.7847  16.6214  19.6739  20.5357  22.3561  23.6105  24.4969  25.0638
    29.6422  30.1994  30.5473  31.6679  32.9284  34.5644  35.2041  35.9032
    36.3656  40.3139

          k = 0.2222 0.3333 0.3333 (   973 PWs)   bands (ev):

   -24.3602  -7.6427  -7.6111  -7.0958   9.3905  11.0168  11.5184  12.7307
    14.4359  15.3009  19.2860  21.2810  23.1089  23.8604  26.1256  26.2717
    27.8542  28.6255  28.7764  31.0451  34.1171  34.8503  36.2159  36.7997
    38.2472  38.5818

          k = 0.2222 0.3333 0.4444 (   974 PWs)   bands (ev):

   -24.3233  -7.9138  -7.5796  -7.0561   9.0722  10.8662  11.3761  12.7982
    14.9508  17.3070  18.6795  20.3542  23.0937  23.7412  24.8887  26.4338
    28.6266  29.3335  30.7563  31.1647  33.4432  34.0242  34.4186  36.5891
    37.8205  39.1125

          k = 0.2222 0.4444 0.4444 (   983 PWs)   bands (ev):

   -24.2868  -7.8658  -7.8611  -7.0172   8.6210  11.0109  11.0995  12.8474
    17.1445  17.7369  18.0158  19.7526  22.9355  24.0482  24.4814  25.6179
    30.1244  30.3737  30.9782  31.5567  32.2656  34.2097  34.7154  34.7463
    36.5715  38.0274

          k = 0.3333 0.3333 0.3333 (   979 PWs)   bands (ev):

   -24.3052  -7.5862  -7.5440  -7.5440   9.4625  10.5388  10.5388  14.5951
    14.5951  16.0289  17.9452  23.2152  23.2152  24.6256  25.9399  25.9399
    28.2311  28.2311  28.7182  32.1251  32.9473  34.4720  34.4720  36.9987
    37.4640  37.4640

          k = 0.3333 0.3333 0.4444 (   972 PWs)   bands (ev):

   -24.2687  -7.8412  -7.5256  -7.4993   9.2707  10.0116  10.5175  14.7043
    15.4883  17.1169  18.1576  21.2404  24.4754  24.8941  25.2618  25.3912
    28.6115  30.0611  30.3488  31.6786  32.4733  32.8260  34.0482  35.9764
    36.0706  38.8205

          k = 0.3333 0.4444 0.4444 (   977 PWs)   bands (ev):

   -24.2325  -7.7949  -7.7905  -7.4681   9.0376   9.9732  10.0333  15.1718
    16.2554  17.5086  18.8826  20.8612  23.2306  25.2128  25.3821  26.1935
    30.1732  30.4776  30.9325  30.9979  31.8172  33.2837  33.4662  33.4938
    37.0645  37.2582

          k = 0.4444 0.4444 0.4444 (   979 PWs)   bands (ev):

   -24.1965  -7.7495  -7.7435  -7.7435   9.3220   9.4752   9.4752  15.3251
    17.6631  17.6631  19.5709  21.4245  21.4245  26.4101  26.4702  26.4702
    29.3742  30.6521  30.6521  31.3384  31.9592  32.4091  32.4091  34.4280
    37.5231  37.5231

     the Fermi energy is    10.3978 ev

!    total energy              =    -471.70066850 Ry
     total all-electron energy =    -17721.225397 Ry
     estimated scf accuracy    <       0.00001310 Ry
     smearing contrib. (-TS)   =       0.00018941 Ry
     internal energy E=F+TS    =    -471.70085791 Ry

     The total energy is F=E-TS. E is the sum of the following terms:
     one-electron contribution =      -7.70546701 Ry
     hartree contribution      =       9.04293551 Ry
     xc contribution           =     -73.15223805 Ry
     ewald contribution        =     -54.11053432 Ry
     one-center paw contrib.   =    -345.77555403 Ry

     convergence has been achieved in   3 iterations

     Writing all to output data dir ./work/POSCAR.save/

     init_run     :      0.21s CPU      0.24s WALL (       1 calls)
     electrons    :      1.08s CPU      1.39s WALL (       1 calls)

     Called by init_run:
     wfcinit      :      0.06s CPU      0.07s WALL (       1 calls)
     potinit      :      0.07s CPU      0.08s WALL (       1 calls)
     hinit0       :      0.07s CPU      0.08s WALL (       1 calls)

     Called by electrons:
     c_bands      :      0.87s CPU      1.14s WALL (       4 calls)
     sum_band     :      0.10s CPU      0.11s WALL (       4 calls)
     v_of_rho     :      0.00s CPU      0.00s WALL (       4 calls)
     newd         :      0.01s CPU      0.01s WALL (       4 calls)
     PAW_pot      :      0.13s CPU      0.14s WALL (       4 calls)
     mix_rho      :      0.00s CPU      0.00s WALL (       4 calls)

     Called by c_bands:
     init_us_2    :      0.01s CPU      0.01s WALL (     315 calls)
     init_us_2:cp :      0.01s CPU      0.01s WALL (     315 calls)
     cegterg      :      0.85s CPU      0.88s WALL (     140 calls)

     Called by *egterg:
     cdiaghg      :      0.28s CPU      0.29s WALL (     639 calls)
     h_psi        :      0.49s CPU      0.51s WALL (     709 calls)
     s_psi        :      0.01s CPU      0.01s WALL (     709 calls)
     g_psi        :      0.00s CPU      0.00s WALL (     534 calls)

     Called by h_psi:
     h_psi:calbec :      0.02s CPU      0.02s WALL (     709 calls)
     vloc_psi     :      0.45s CPU      0.48s WALL (     709 calls)
     add_vuspsi   :      0.01s CPU      0.01s WALL (     709 calls)

     General routines
     calbec       :      0.03s CPU      0.03s WALL (     849 calls)
     fft          :      0.06s CPU      0.06s WALL (      51 calls)
     ffts         :      0.03s CPU      0.03s WALL (       8 calls)
     fftw         :      0.49s CPU      0.51s WALL (   25376 calls)
     interpolate  :      0.03s CPU      0.03s WALL (       4 calls)

     Parallel routines

     PWSCF        :      1.41s CPU      2.22s WALL


   This run was terminated on:  22:40:56  15May2024            

=------------------------------------------------------------------------------=
   JOB DONE.
=------------------------------------------------------------------------------=
