
     Program PWSCF v.7.1 starts on 15May2024 at 22:42:17 

     This program is part of the open-source Quantum ESPRESSO suite
     for quantum simulation of materials; please cite
         "P. Giannozzi et al., J. Phys.:Condens. Matter 21 395502 (2009);
         "P. Giannozzi et al., J. Phys.:Condens. Matter 29 465901 (2017);
         "P. Giannozzi et al., J. Chem. Phys. 152 154105 (2020);
          URL http://www.quantum-espresso.org", 
     in publications or presentations arising from this work. More details at
     http://www.quantum-espresso.org/quote

     Parallel version (MPI & OpenMP), running on      10 processor cores
     Number of MPI processes:                10
     Threads/MPI process:                     1

     MPI processes distributed on     1 nodes
     14568 MiB available memory on the printing compute node when the environment starts

     Waiting for input...
     Reading input from standard input

     Current dimensions of program PWSCF are:
     Max number of different atomic species (ntypx) = 10
     Max number of k-points (npk) =  40000
     Max angular momentum in pseudopotentials (lmaxx) =  4
     file Ce.pbe-spdn-kjpaw_psl.1.0.0.UPF: wavefunction(s)  5D renormalized
     Message from routine setup:
     using ibrav=0 with symmetry is DISCOURAGED, use correct ibrav instead

     R & G space division:  proc/nbgrp/npool/nimage =      10
     Subspace diagonalization in iterative solution of the eigenvalue problem:
     a serial algorithm will be used


     Parallelization info
     --------------------
     sticks:   dense  smooth     PW     G-vecs:    dense   smooth      PW
     Min          64      51     16                 1214      907     157
     Max          65      52     18                 1217      912     159
     Sum         641     517    169                12149     9093    1575

     Using Slab Decomposition



     bravais-lattice index     =            0
     lattice parameter (alat)  =       6.6979  a.u.
     unit-cell volume          =     300.4737 (a.u.)^3
     number of atoms/cell      =            1
     number of atomic types    =            1
     number of electrons       =        11.00
     number of Kohn-Sham states=           26
     kinetic-energy cutoff     =      37.0000  Ry
     charge density cutoff     =     179.0000  Ry
     scf convergence threshold =      7.3E-05
     mixing beta               =       0.7000
     number of iterations used =            8  plain     mixing
     Exchange-correlation= SLA  PW   PBX  PBC
                           (   1   4   3   4   0   0   0)

     celldm(1)=   6.697851  celldm(2)=   0.000000  celldm(3)=   0.000000
     celldm(4)=   0.000000  celldm(5)=   0.000000  celldm(6)=   0.000000

     crystal axes: (cart. coord. in units of alat)
               a(1) = (   1.000000   0.000000   0.000000 )  
               a(2) = (   0.000000   1.000000   0.000000 )  
               a(3) = (   0.000000   0.000000   1.000000 )  

     reciprocal axes: (cart. coord. in units 2 pi/alat)
               b(1) = (  1.000000  0.000000  0.000000 )  
               b(2) = (  0.000000  1.000000  0.000000 )  
               b(3) = (  0.000000  0.000000  1.000000 )  


     PseudoPot. # 1 for Ce read from file:
     ./../../../../pseudo/psl100_PBE/Ce.pbe-spdn-kjpaw_psl.1.0.0.UPF
     MD5 check sum: 1a25380276e46fcecd5a173acdad072c
     Pseudo is Projector augmented-wave + core cor, Zval = 11.0
     Generated using 'atomic' code by A. Dal Corso  v.7.2
     Shape of augmentation charge: PSQ
     Using radial grid of 1255 points,  6 beta functions with: 
                l(1) =   0
                l(2) =   0
                l(3) =   1
                l(4) =   1
                l(5) =   2
                l(6) =   2
     Q(r) pseudized with 0 coefficients 


     atomic species   valence    mass     pseudopotential
        Ce            11.00   140.11600     Ce( 1.00)

     48 Sym. Ops., with inversion, found



   Cartesian axes

     site n.     atom                  positions (alat units)
         1           Ce  tau(   1) = (   0.0000000   0.0000000   0.0000000  )

     number of k points=    35  Methfessel-Paxton smearing, width (Ry)=  0.0200
                       cart. coord. in units 2pi/alat
        k(    1) = (   0.0000000   0.0000000   0.0000000), wk =   0.0027435
        k(    2) = (   0.0000000   0.0000000   0.1111111), wk =   0.0164609
        k(    3) = (   0.0000000   0.0000000   0.2222222), wk =   0.0164609
        k(    4) = (   0.0000000   0.0000000   0.3333333), wk =   0.0164609
        k(    5) = (   0.0000000   0.0000000   0.4444444), wk =   0.0164609
        k(    6) = (   0.0000000   0.1111111   0.1111111), wk =   0.0329218
        k(    7) = (   0.0000000   0.1111111   0.2222222), wk =   0.0658436
        k(    8) = (   0.0000000   0.1111111   0.3333333), wk =   0.0658436
        k(    9) = (   0.0000000   0.1111111   0.4444444), wk =   0.0658436
        k(   10) = (   0.0000000   0.2222222   0.2222222), wk =   0.0329218
        k(   11) = (   0.0000000   0.2222222   0.3333333), wk =   0.0658436
        k(   12) = (   0.0000000   0.2222222   0.4444444), wk =   0.0658436
        k(   13) = (   0.0000000   0.3333333   0.3333333), wk =   0.0329218
        k(   14) = (   0.0000000   0.3333333   0.4444444), wk =   0.0658436
        k(   15) = (   0.0000000   0.4444444   0.4444444), wk =   0.0329218
        k(   16) = (   0.1111111   0.1111111   0.1111111), wk =   0.0219479
        k(   17) = (   0.1111111   0.1111111   0.2222222), wk =   0.0658436
        k(   18) = (   0.1111111   0.1111111   0.3333333), wk =   0.0658436
        k(   19) = (   0.1111111   0.1111111   0.4444444), wk =   0.0658436
        k(   20) = (   0.1111111   0.2222222   0.2222222), wk =   0.0658436
        k(   21) = (   0.1111111   0.2222222   0.3333333), wk =   0.1316872
        k(   22) = (   0.1111111   0.2222222   0.4444444), wk =   0.1316872
        k(   23) = (   0.1111111   0.3333333   0.3333333), wk =   0.0658436
        k(   24) = (   0.1111111   0.3333333   0.4444444), wk =   0.1316872
        k(   25) = (   0.1111111   0.4444444   0.4444444), wk =   0.0658436
        k(   26) = (   0.2222222   0.2222222   0.2222222), wk =   0.0219479
        k(   27) = (   0.2222222   0.2222222   0.3333333), wk =   0.0658436
        k(   28) = (   0.2222222   0.2222222   0.4444444), wk =   0.0658436
        k(   29) = (   0.2222222   0.3333333   0.3333333), wk =   0.0658436
        k(   30) = (   0.2222222   0.3333333   0.4444444), wk =   0.1316872
        k(   31) = (   0.2222222   0.4444444   0.4444444), wk =   0.0658436
        k(   32) = (   0.3333333   0.3333333   0.3333333), wk =   0.0219479
        k(   33) = (   0.3333333   0.3333333   0.4444444), wk =   0.0658436
        k(   34) = (   0.3333333   0.4444444   0.4444444), wk =   0.0658436
        k(   35) = (   0.4444444   0.4444444   0.4444444), wk =   0.0219479

     Dense  grid:    12149 G-vectors     FFT dimensions: (  30,  30,  30)

     Smooth grid:     9093 G-vectors     FFT dimensions: (  25,  25,  25)

     Estimated max dynamical RAM per process >       6.90 MB

     Estimated total dynamical RAM >      68.95 MB

     Initial potential from superposition of free atoms

     starting charge      10.9735, renormalised to      11.0000
     Starting wfcs are   13 randomized atomic wfcs +   13 random wfcs
     Checking if some PAW data can be deallocated... 

     total cpu time spent up to now is        0.5 secs

     per-process dynamical memory:    14.4 Mb

     Self-consistent Calculation

     iteration #  1     ecut=    37.00 Ry     beta= 0.70
     Davidson diagonalization with overlap
     ethr =  1.00E-02,  avg # of iterations =  7.0

     Threshold (ethr) on eigenvalues was too large:
     Diagonalizing with lowered threshold

     Davidson diagonalization with overlap
     ethr =  3.01E-05,  avg # of iterations =  5.0

     total cpu time spent up to now is        1.4 secs

     total energy              =    -471.69415629 Ry
     estimated scf accuracy    <       0.00346436 Ry

     iteration #  2     ecut=    37.00 Ry     beta= 0.70
     Davidson diagonalization with overlap
     ethr =  3.15E-05,  avg # of iterations =  1.5

     total cpu time spent up to now is        1.7 secs

     total energy              =    -471.69497262 Ry
     estimated scf accuracy    <       0.00027428 Ry

     iteration #  3     ecut=    37.00 Ry     beta= 0.70
     Davidson diagonalization with overlap
     ethr =  2.49E-06,  avg # of iterations =  2.5

     total cpu time spent up to now is        2.0 secs

     End of self-consistent calculation

          k = 0.0000 0.0000 0.0000 (  1189 PWs)   bands (ev):

   -26.6920  -8.9697  -8.9697  -8.9697   5.3435   7.6516   7.6516  13.4850
    13.4850  13.4850  17.5526  17.5526  17.5526  21.2611  21.9512  21.9512
    21.9512  22.6332  22.6332  29.0576  32.8782  32.8782  32.8782  33.8144
    33.8145  33.8145

          k = 0.0000 0.0000 0.1111 (  1157 PWs)   bands (ev):

   -26.6812  -9.0945  -8.9591  -8.9591   5.5692   7.7160   7.9188  12.9948
    12.9948  13.5175  16.6655  18.1017  18.1017  20.1446  21.8659  22.3237
    22.3237  23.3367  24.7459  28.2696  31.0563  31.0563  31.3352  32.5769
    34.0142  35.0177

          k = 0.0000 0.0000 0.2222 (  1149 PWs)   bands (ev):

   -26.6539  -9.3964  -8.9322  -8.9322   6.1171   7.8890   8.6489  12.0979
    12.0979  13.6018  15.3877  18.4118  19.0911  19.0911  22.1751  23.4373
    23.4373  25.4614  27.0157  27.3873  27.6239  29.2950  29.2950  30.9539
    35.1098  35.5852

          k = 0.0000 0.0000 0.3333 (  1149 PWs)   bands (ev):

   -26.6225  -9.7181  -8.9012  -8.9012   6.7664   8.1061   9.3862  11.3483
    11.3483  13.7017  14.9398  17.1388  19.9202  19.9202  21.5720  24.8175
    24.8175  25.0814  26.0288  27.2642  28.5035  28.5035  30.1023  30.6427
    35.2065  35.6659

          k = 0.0000 0.0000 0.4444 (  1145 PWs)   bands (ev):

   -26.6018  -9.9175  -8.8808  -8.8808   7.2906   8.2626   9.5303  10.9412
    10.9412  13.7695  15.8102  16.4507  19.5746  20.4212  20.4212  24.6588
    25.2149  25.2149  25.4997  27.1471  29.7161  29.7161  32.3372  33.0948
    33.4047  33.4048

          k = 0.0000 0.1111 0.1111 (  1147 PWs)   bands (ev):

   -26.6705  -9.0897  -9.0766  -8.9486   5.7960   7.8825   8.0796  12.4611
    12.9253  13.1581  17.1652  17.2273  18.6741  20.1214  21.2974  22.6473
    22.8920  24.4370  25.6764  27.2628  29.4867  30.8163  31.8083  32.2026
    33.2676  34.1578

          k = 0.0000 0.1111 0.2222 (  1146 PWs)   bands (ev):

   -26.6433  -9.3835  -9.0539  -8.9218   6.3389   8.0929   8.7517  11.5654
    12.1351  13.1729  15.8730  18.0495  18.8549  19.7378  22.2951  23.5732
    23.6420  25.8832  26.0205  27.6043  27.8821  28.1816  30.6937  31.9634
    32.7810  35.1553

          k = 0.0000 0.1111 0.3333 (  1149 PWs)   bands (ev):

   -26.6120  -9.7034  -9.0208  -8.8910   6.9801   8.3192   9.2674  11.1602
    11.3999  13.2865  15.2325  17.6328  18.8039  20.6266  22.3126  23.8784
    24.1559  25.6231  25.9180  27.0603  28.6900  29.6742  29.9026  32.0349
    32.7307  35.6419

          k = 0.0000 0.1111 0.4444 (  1147 PWs)   bands (ev):

   -26.5914  -9.9017  -8.9989  -8.8708   7.5300   8.5069   9.0097  10.9972
    11.2686  13.3668  15.8327  16.9816  19.1703  20.0812  21.1850  23.5729
    24.0707  25.7551  27.1010  28.1643  29.2902  29.9813  30.7967  32.2656
    33.5899  34.0493

          k = 0.0000 0.2222 0.2222 (  1143 PWs)   bands (ev):

   -26.6163  -9.3639  -9.3354  -8.8954   6.8314   8.4193   9.2637  10.7736
    12.1171  12.4685  16.3826  16.8812  19.3611  20.9979  21.9144  24.4166
    24.4394  24.5225  25.6275  26.8699  28.4822  28.5974  30.7555  32.3715
    34.3186  35.1003

          k = 0.0000 0.2222 0.3333 (  1143 PWs)   bands (ev):

   -26.5853  -9.6657  -9.3106  -8.8652   7.3531   8.4314   9.6297  11.0089
    11.5341  12.4728  15.6398  17.4061  18.8230  21.8108  22.2578  23.4863
    23.5830  24.6165  26.0967  27.2106  28.3567  30.2849  31.7572  32.8049
    33.3095  35.2150

          k = 0.0000 0.2222 0.4444 (  1141 PWs)   bands (ev):

   -26.5648  -9.8611  -9.2855  -8.8453   7.8075   8.1840   9.5580  11.1463
    11.7351  12.5645  15.7722  18.0640  18.3302  19.8866  21.9148  23.0459
    23.2128  26.1630  27.9068  28.2808  28.6258  30.1794  30.8174  32.0174
    34.2172  34.5640

          k = 0.0000 0.3333 0.3333 (  1155 PWs)   bands (ev):

   -26.5546  -9.6317  -9.6111  -8.8355   7.4264   8.2525  10.9150  11.1390
    11.6277  11.8355  15.5931  16.9823  19.3356  21.3309  22.1122  22.6570
    24.4090  24.9168  24.9222  26.7740  30.7566  31.1705  31.7877  33.3763
    34.6336  34.8576

          k = 0.0000 0.3333 0.4444 (  1133 PWs)   bands (ev):

   -26.5343  -9.8143  -9.5923  -8.8159   7.2291   8.3698  11.1098  11.3305
    11.8587  12.1378  15.4667  17.7138  19.0006  19.7836  20.8052  23.0418
    23.5983  25.7180  26.5479  28.8602  29.2383  31.4019  31.7216  33.6009
    34.4734  35.0092

          k = 0.0000 0.4444 0.4444 (  1132 PWs)   bands (ev):

   -26.5142  -9.7848  -9.7817  -8.7967   6.8290   8.5918  11.4498  11.4789
    12.3808  12.4107  15.2332  18.1635  18.6340  19.9734  20.1848  20.6197
    24.3683  26.6908  28.1189  28.3536  29.4135  32.0450  32.1457  32.3122
    34.3295  34.3329

          k = 0.1111 0.1111 0.1111 (  1153 PWs)   bands (ev):

   -26.6599  -9.0846  -9.0655  -9.0655   6.0249   8.1419   8.1419  12.3356
    12.6136  12.6136  17.5381  17.8759  17.8759  20.7147  20.7147  22.3627
    23.7726  25.8738  25.8738  26.0580  30.3867  30.9160  30.9160  31.4402
    31.4402  33.8862

          k = 0.1111 0.1111 0.2222 (  1142 PWs)   bands (ev):

   -26.6328  -9.3708  -9.0485  -9.0371   6.5648   8.3122   8.8329  11.6023
    11.6367  12.6762  16.4359  18.4034  18.7746  19.6388  22.1200  23.2048
    24.2589  24.8895  26.6926  27.8721  28.3316  29.2681  29.7958  31.3747
    33.4394  33.5633

          k = 0.1111 0.1111 0.3333 (  1153 PWs)   bands (ev):

   -26.6016  -9.6887  -9.0154  -9.0045   7.2007   8.5366   9.2131  10.8111
    11.5393  12.8171  15.6542  18.0160  18.9813  20.2419  22.4056  22.9944
    24.6783  24.9891  26.4967  28.1088  28.1201  29.8652  29.9708  32.7665
    32.8962  33.7456

          k = 0.1111 0.1111 0.4444 (  1149 PWs)   bands (ev):

   -26.5810  -9.8860  -8.9935  -8.9830   7.8050   8.7148   8.8187  10.3392
    12.0369  12.9180  15.9495  17.4174  19.1961  20.4472  20.7762  22.0574
    25.4459  26.3374  26.7701  28.5881  28.7165  30.4831  30.5485  32.3484
    32.6177  33.3284

          k = 0.1111 0.2222 0.2222 (  1150 PWs)   bands (ev):

   -26.6058  -9.3513  -9.3230  -9.0144   7.0518   8.6682   9.2986  10.8322
    11.6856  11.8848  17.1905  17.3477  19.4507  20.4748  21.8964  23.0739
    23.7291  25.8312  25.9327  28.0543  28.3928  29.4575  30.8602  31.6708
    32.4973  33.1721

          k = 0.1111 0.2222 0.3333 (  1145 PWs)   bands (ev):

   -26.5749  -9.6514  -9.2984  -8.9821   7.5416   8.6937   9.6387  10.5285
    11.7162  11.9761  16.2628  17.9168  19.0752  20.6905  22.1242  23.0633
    24.0284  25.2316  25.7908  27.5435  29.0154  30.4528  31.3481  32.6565
    33.4395  34.0012

          k = 0.1111 0.2222 0.4444 (  1143 PWs)   bands (ev):

   -26.5545  -9.8459  -9.2735  -8.9608   7.9193   8.5060   9.6145  10.1493
    12.0999  12.6967  16.0619  18.4635  18.5286  19.6857  21.2341  22.4160
    24.5815  26.3785  27.4443  27.9191  29.3959  30.0115  30.6223  32.6022
    32.7703  33.5068

          k = 0.1111 0.3333 0.3333 (  1145 PWs)   bands (ev):

   -26.5443  -9.6176  -9.5974  -8.9505   7.5224   8.6173  10.4716  10.5523
    11.7840  12.0028  16.3517  17.2764  19.1468  20.6585  22.2127  23.4344
    24.2960  24.4732  25.7733  26.1168  31.0678  32.0006  32.2217  32.7435
    32.9022  33.5210

          k = 0.1111 0.3333 0.4444 (  1139 PWs)   bands (ev):

   -26.5241  -9.7995  -9.5787  -8.9297   7.3121   8.7816  10.2828  10.6105
    11.9970  13.1464  15.9267  17.6667  18.6215  19.8402  21.2096  23.0884
    24.2771  25.3472  26.6872  28.1959  29.3249  30.9751  32.3529  32.8977
    33.8061  34.5025

          k = 0.1111 0.4444 0.4444 (  1140 PWs)   bands (ev):

   -26.5041  -9.7702  -9.7672  -8.9092   6.9230   9.0373  10.4291  10.4341
    13.3024  13.4540  15.5036  17.2461  18.5912  20.2018  20.6272  21.1839
    24.9861  26.7665  27.7908  28.2107  28.7508  31.3226  31.7017  32.2538
    32.9658  35.0389

          k = 0.2222 0.2222 0.2222 (  1147 PWs)   bands (ev):

   -26.5791  -9.3306  -9.2912  -9.2912   7.4634   9.3721   9.3721  10.9155
    10.9155  11.1956  17.7273  18.6894  18.6894  21.4571  21.4571  21.6100
    23.5842  26.1649  26.1649  27.8526  30.0645  30.4515  30.4515  31.6673
    31.8803  31.8804

          k = 0.2222 0.2222 0.3333 (  1150 PWs)   bands (ev):

   -26.5485  -9.6149  -9.2784  -9.2547   7.7680   9.3667   9.4970  10.2489
    11.2300  11.9555  17.0877  18.2124  19.5626  20.6420  21.1734  23.0909
    24.2426  24.5761  26.3008  28.0458  29.2993  29.7831  31.7161  32.6540
    33.4187  33.6755

          k = 0.2222 0.2222 0.4444 (  1142 PWs)   bands (ev):

   -26.5282  -9.8067  -9.2537  -9.2306   7.9086   9.2218   9.2675  10.0568
    11.4093  13.5787  16.4707  17.6306  19.4345  20.3818  21.2582  21.5759
    25.7497  26.2952  26.5144  27.9480  29.2373  29.9253  30.4892  31.8071
    31.8873  35.2847

          k = 0.2222 0.3333 0.3333 (  1139 PWs)   bands (ev):

   -26.5181  -9.5819  -9.5623  -9.2298   7.7103   9.1006   9.5680  10.4543
    11.8327  12.3912  16.7164  17.8948  19.8978  20.3570  22.4011  22.4943
    24.5963  24.8359  25.3315  27.5467  29.1146  30.7839  31.8533  32.3020
    33.8657  33.9106

          k = 0.2222 0.3333 0.4444 (  1143 PWs)   bands (ev):

   -26.4980  -9.7616  -9.5440  -9.2061   7.5265   9.0472   9.3762  10.4703
    12.1888  14.1336  16.2154  16.8957  19.7621  20.4210  21.5818  22.3176
    24.9789  25.9261  26.9396  27.5838  29.0155  29.6394  30.0540  32.4533
    33.0770  34.6607

          k = 0.2222 0.4444 0.4444 (  1141 PWs)   bands (ev):

   -26.4782  -9.7331  -9.7302  -9.1828   7.1841   9.1496   9.2371  10.4402
    14.0267  14.5952  15.5971  16.3027  19.1988  20.8951  20.9021  21.9872
    26.6546  26.7978  26.9437  27.7009  28.5115  29.0171  30.4037  30.6005
    32.5598  33.7544

          k = 0.3333 0.3333 0.3333 (  1136 PWs)   bands (ev):

   -26.4879  -9.5484  -9.5218  -9.5218   7.8011   8.7923   8.7923  11.9407
    11.9407  12.9279  15.6381  19.3812  19.3812  21.1180  22.1764  22.1764
    24.9484  24.9484  25.5514  27.1169  29.2399  30.3511  30.3511  32.1228
    33.2510  33.2510

          k = 0.3333 0.3333 0.4444 (  1130 PWs)   bands (ev):

   -26.4681  -9.7179  -9.5119  -9.4951   7.6962   8.3687   8.7440  12.0209
    12.5902  14.7147  15.0289  17.4790  20.3938  21.3230  21.5852  21.9580
    25.3490  26.2500  26.7998  26.8247  28.7382  29.0309  29.9874  31.4546
    32.0585  34.4649

          k = 0.3333 0.4444 0.4444 (  1125 PWs)   bands (ev):

   -26.4484  -9.6902  -9.6875  -9.4769   7.5350   8.3116   8.3628  12.3670
    14.2167  14.3413  15.3948  17.1438  19.0978  21.7048  21.9012  22.3765
    25.4440  26.8844  26.8996  27.4705  28.1856  29.2731  29.5948  29.6077
    33.0065  33.1100

          k = 0.4444 0.4444 0.4444 (  1118 PWs)   bands (ev):

   -26.4288  -9.6631  -9.6592  -9.6592   7.7705   7.9057   7.9057  13.4224
    14.4729  14.4729  15.9802  17.6117  17.6117  22.5102  22.5543  22.5543
    24.1008  27.1832  27.1832  27.8964  28.1745  28.7470  28.7470  30.5959
    33.4269  33.4269

     the Fermi energy is     8.5074 ev

!    total energy              =    -471.69501575 Ry
     total all-electron energy =    -17721.219744 Ry
     estimated scf accuracy    <       0.00001179 Ry
     smearing contrib. (-TS)   =      -0.00041758 Ry
     internal energy E=F+TS    =    -471.69459817 Ry

     The total energy is F=E-TS. E is the sum of the following terms:
     one-electron contribution =     -11.85404117 Ry
     hartree contribution      =      10.24257586 Ry
     xc contribution           =     -73.04971758 Ry
     ewald contribution        =     -51.25718778 Ry
     one-center paw contrib.   =    -345.77622750 Ry

     convergence has been achieved in   3 iterations

     Writing all to output data dir ./work/POSCAR.save/

     init_run     :      0.27s CPU      0.29s WALL (       1 calls)
     electrons    :      1.13s CPU      1.46s WALL (       1 calls)

     Called by init_run:
     wfcinit      :      0.06s CPU      0.06s WALL (       1 calls)
     potinit      :      0.07s CPU      0.08s WALL (       1 calls)
     hinit0       :      0.13s CPU      0.13s WALL (       1 calls)

     Called by electrons:
     c_bands      :      0.92s CPU      1.22s WALL (       4 calls)
     sum_band     :      0.10s CPU      0.11s WALL (       4 calls)
     v_of_rho     :      0.00s CPU      0.00s WALL (       4 calls)
     newd         :      0.01s CPU      0.01s WALL (       4 calls)
     PAW_pot      :      0.13s CPU      0.14s WALL (       4 calls)
     mix_rho      :      0.00s CPU      0.00s WALL (       4 calls)

     Called by c_bands:
     init_us_2    :      0.01s CPU      0.01s WALL (     315 calls)
     init_us_2:cp :      0.01s CPU      0.01s WALL (     315 calls)
     cegterg      :      0.90s CPU      0.94s WALL (     140 calls)

     Called by *egterg:
     cdiaghg      :      0.29s CPU      0.30s WALL (     667 calls)
     h_psi        :      0.50s CPU      0.53s WALL (     737 calls)
     s_psi        :      0.01s CPU      0.01s WALL (     737 calls)
     g_psi        :      0.00s CPU      0.00s WALL (     562 calls)

     Called by h_psi:
     h_psi:calbec :      0.03s CPU      0.03s WALL (     737 calls)
     vloc_psi     :      0.47s CPU      0.49s WALL (     737 calls)
     add_vuspsi   :      0.01s CPU      0.01s WALL (     737 calls)

     General routines
     calbec       :      0.03s CPU      0.03s WALL (     877 calls)
     fft          :      0.11s CPU      0.11s WALL (      51 calls)
     ffts         :      0.03s CPU      0.03s WALL (       8 calls)
     fftw         :      0.50s CPU      0.52s WALL (   25622 calls)
     interpolate  :      0.03s CPU      0.03s WALL (       4 calls)

     Parallel routines

     PWSCF        :      1.55s CPU      2.39s WALL


   This run was terminated on:  22:42:20  15May2024            

=------------------------------------------------------------------------------=
   JOB DONE.
=------------------------------------------------------------------------------=
