
     Program PWSCF v.7.1 starts on 15May2024 at 22:42:21 

     This program is part of the open-source Quantum ESPRESSO suite
     for quantum simulation of materials; please cite
         "P. Giannozzi et al., J. Phys.:Condens. Matter 21 395502 (2009);
         "P. Giannozzi et al., J. Phys.:Condens. Matter 29 465901 (2017);
         "P. Giannozzi et al., J. Chem. Phys. 152 154105 (2020);
          URL http://www.quantum-espresso.org", 
     in publications or presentations arising from this work. More details at
     http://www.quantum-espresso.org/quote

     Parallel version (MPI & OpenMP), running on      10 processor cores
     Number of MPI processes:                10
     Threads/MPI process:                     1

     MPI processes distributed on     1 nodes
     14558 MiB available memory on the printing compute node when the environment starts

     Waiting for input...
     Reading input from standard input

     Current dimensions of program PWSCF are:
     Max number of different atomic species (ntypx) = 10
     Max number of k-points (npk) =  40000
     Max angular momentum in pseudopotentials (lmaxx) =  4

     Atomic positions and unit cell read from directory:
     ./work/POSCAR.save/

     file Ce.pbe-spdn-kjpaw_psl.1.0.0.UPF: wavefunction(s)  5D renormalized
     Message from routine setup:
     using ibrav=0 with symmetry is DISCOURAGED, use correct ibrav instead

     R & G space division:  proc/nbgrp/npool/nimage =      10
     Subspace diagonalization in iterative solution of the eigenvalue problem:
     a serial algorithm will be used


     Parallelization info
     --------------------
     sticks:   dense  smooth     PW     G-vecs:    dense   smooth      PW
     Min          63      51     17                 1213      907     173
     Max          65      52     18                 1216      912     176
     Sum         641     517    177                12149     9093    1743

     Using Slab Decomposition



     bravais-lattice index     =            0
     lattice parameter (alat)  =       6.6979  a.u.
     unit-cell volume          =     300.4737 (a.u.)^3
     number of atoms/cell      =            1
     number of atomic types    =            1
     number of electrons       =        11.00
     number of Kohn-Sham states=           26
     kinetic-energy cutoff     =      37.0000  Ry
     charge density cutoff     =     179.0000  Ry
     Exchange-correlation= SLA  PW   PBX  PBC
                           (   1   4   3   4   0   0   0)

     celldm(1)=   6.697851  celldm(2)=   0.000000  celldm(3)=   0.000000
     celldm(4)=   0.000000  celldm(5)=   0.000000  celldm(6)=   0.000000

     crystal axes: (cart. coord. in units of alat)
               a(1) = (   1.000000   0.000000   0.000000 )  
               a(2) = (   0.000000   1.000000   0.000000 )  
               a(3) = (   0.000000   0.000000   1.000000 )  

     reciprocal axes: (cart. coord. in units 2 pi/alat)
               b(1) = (  1.000000  0.000000  0.000000 )  
               b(2) = (  0.000000  1.000000  0.000000 )  
               b(3) = (  0.000000  0.000000  1.000000 )  


     PseudoPot. # 1 for Ce read from file:
     ./../../../../pseudo/psl100_PBE/Ce.pbe-spdn-kjpaw_psl.1.0.0.UPF
     MD5 check sum: 1a25380276e46fcecd5a173acdad072c
     Pseudo is Projector augmented-wave + core cor, Zval = 11.0
     Generated using 'atomic' code by A. Dal Corso  v.7.2
     Shape of augmentation charge: PSQ
     Using radial grid of 1255 points,  6 beta functions with: 
                l(1) =   0
                l(2) =   0
                l(3) =   1
                l(4) =   1
                l(5) =   2
                l(6) =   2
     Q(r) pseudized with 0 coefficients 


     atomic species   valence    mass     pseudopotential
        Ce            11.00   140.11600     Ce( 1.00)

     48 Sym. Ops., with inversion, found



   Cartesian axes

     site n.     atom                  positions (alat units)
         1           Ce  tau(   1) = (   0.0000000   0.0000000   0.0000000  )

     number of k points=    91  Methfessel-Paxton smearing, width (Ry)=  0.0200
                       cart. coord. in units 2pi/alat
        k(    1) = (   0.0000000   0.5000000   0.5000000), wk =   0.0219780
        k(    2) = (   0.0500000   0.5000000   0.5000000), wk =   0.0219780
        k(    3) = (   0.1000000   0.5000000   0.5000000), wk =   0.0219780
        k(    4) = (   0.1500000   0.5000000   0.5000000), wk =   0.0219780
        k(    5) = (   0.2000000   0.5000000   0.5000000), wk =   0.0219780
        k(    6) = (   0.2500000   0.5000000   0.5000000), wk =   0.0219780
        k(    7) = (   0.3000000   0.5000000   0.5000000), wk =   0.0219780
        k(    8) = (   0.3500000   0.5000000   0.5000000), wk =   0.0219780
        k(    9) = (   0.4000000   0.5000000   0.5000000), wk =   0.0219780
        k(   10) = (   0.4500000   0.5000000   0.5000000), wk =   0.0219780
        k(   11) = (   0.5000000   0.5000000   0.5000000), wk =   0.0219780
        k(   12) = (   0.4750000   0.4750000   0.4750000), wk =   0.0219780
        k(   13) = (   0.4500000   0.4500000   0.4500000), wk =   0.0219780
        k(   14) = (   0.4250000   0.4250000   0.4250000), wk =   0.0219780
        k(   15) = (   0.4000000   0.4000000   0.4000000), wk =   0.0219780
        k(   16) = (   0.3750000   0.3750000   0.3750000), wk =   0.0219780
        k(   17) = (   0.3500000   0.3500000   0.3500000), wk =   0.0219780
        k(   18) = (   0.3250000   0.3250000   0.3250000), wk =   0.0219780
        k(   19) = (   0.3000000   0.3000000   0.3000000), wk =   0.0219780
        k(   20) = (   0.2750000   0.2750000   0.2750000), wk =   0.0219780
        k(   21) = (   0.2500000   0.2500000   0.2500000), wk =   0.0219780
        k(   22) = (   0.2250000   0.2250000   0.2250000), wk =   0.0219780
        k(   23) = (   0.2000000   0.2000000   0.2000000), wk =   0.0219780
        k(   24) = (   0.1750000   0.1750000   0.1750000), wk =   0.0219780
        k(   25) = (   0.1500000   0.1500000   0.1500000), wk =   0.0219780
        k(   26) = (   0.1250000   0.1250000   0.1250000), wk =   0.0219780
        k(   27) = (   0.1000000   0.1000000   0.1000000), wk =   0.0219780
        k(   28) = (   0.0750000   0.0750000   0.0750000), wk =   0.0219780
        k(   29) = (   0.0500000   0.0500000   0.0500000), wk =   0.0219780
        k(   30) = (   0.0250000   0.0250000   0.0250000), wk =   0.0219780
        k(   31) = (   0.0000000   0.0000000   0.0000000), wk =   0.0219780
        k(   32) = (   0.0500000   0.0000000   0.0000000), wk =   0.0219780
        k(   33) = (   0.1000000   0.0000000   0.0000000), wk =   0.0219780
        k(   34) = (   0.1500000   0.0000000   0.0000000), wk =   0.0219780
        k(   35) = (   0.2000000   0.0000000   0.0000000), wk =   0.0219780
        k(   36) = (   0.2500000   0.0000000   0.0000000), wk =   0.0219780
        k(   37) = (   0.3000000   0.0000000   0.0000000), wk =   0.0219780
        k(   38) = (   0.3500000   0.0000000   0.0000000), wk =   0.0219780
        k(   39) = (   0.4000000   0.0000000   0.0000000), wk =   0.0219780
        k(   40) = (   0.4500000   0.0000000   0.0000000), wk =   0.0219780
        k(   41) = (   0.5000000   0.0000000   0.0000000), wk =   0.0219780
        k(   42) = (   0.5000000   0.0500000   0.0000000), wk =   0.0219780
        k(   43) = (   0.5000000   0.1000000   0.0000000), wk =   0.0219780
        k(   44) = (   0.5000000   0.1500000   0.0000000), wk =   0.0219780
        k(   45) = (   0.5000000   0.2000000   0.0000000), wk =   0.0219780
        k(   46) = (   0.5000000   0.2500000   0.0000000), wk =   0.0219780
        k(   47) = (   0.5000000   0.3000000   0.0000000), wk =   0.0219780
        k(   48) = (   0.5000000   0.3500000   0.0000000), wk =   0.0219780
        k(   49) = (   0.5000000   0.4000000   0.0000000), wk =   0.0219780
        k(   50) = (   0.5000000   0.4500000   0.0000000), wk =   0.0219780
        k(   51) = (   0.5000000   0.5000000   0.0000000), wk =   0.0219780
        k(   52) = (   0.4750000   0.4750000   0.0000000), wk =   0.0219780
        k(   53) = (   0.4500000   0.4500000   0.0000000), wk =   0.0219780
        k(   54) = (   0.4250000   0.4250000   0.0000000), wk =   0.0219780
        k(   55) = (   0.4000000   0.4000000   0.0000000), wk =   0.0219780
        k(   56) = (   0.3750000   0.3750000   0.0000000), wk =   0.0219780
        k(   57) = (   0.3500000   0.3500000   0.0000000), wk =   0.0219780
        k(   58) = (   0.3250000   0.3250000   0.0000000), wk =   0.0219780
        k(   59) = (   0.3000000   0.3000000   0.0000000), wk =   0.0219780
        k(   60) = (   0.2750000   0.2750000   0.0000000), wk =   0.0219780
        k(   61) = (   0.2500000   0.2500000   0.0000000), wk =   0.0219780
        k(   62) = (   0.2250000   0.2250000   0.0000000), wk =   0.0219780
        k(   63) = (   0.2000000   0.2000000   0.0000000), wk =   0.0219780
        k(   64) = (   0.1750000   0.1750000   0.0000000), wk =   0.0219780
        k(   65) = (   0.1500000   0.1500000   0.0000000), wk =   0.0219780
        k(   66) = (   0.1250000   0.1250000   0.0000000), wk =   0.0219780
        k(   67) = (   0.1000000   0.1000000   0.0000000), wk =   0.0219780
        k(   68) = (   0.0750000   0.0750000   0.0000000), wk =   0.0219780
        k(   69) = (   0.0500000   0.0500000   0.0000000), wk =   0.0219780
        k(   70) = (   0.0250000   0.0250000   0.0000000), wk =   0.0219780
        k(   71) = (   0.0000000   0.0000000   0.0000000), wk =   0.0219780
        k(   72) = (   0.0250000   0.0250000   0.0250000), wk =   0.0219780
        k(   73) = (   0.0500000   0.0500000   0.0500000), wk =   0.0219780
        k(   74) = (   0.0750000   0.0750000   0.0750000), wk =   0.0219780
        k(   75) = (   0.1000000   0.1000000   0.1000000), wk =   0.0219780
        k(   76) = (   0.1250000   0.1250000   0.1250000), wk =   0.0219780
        k(   77) = (   0.1500000   0.1500000   0.1500000), wk =   0.0219780
        k(   78) = (   0.1750000   0.1750000   0.1750000), wk =   0.0219780
        k(   79) = (   0.2000000   0.2000000   0.2000000), wk =   0.0219780
        k(   80) = (   0.2250000   0.2250000   0.2250000), wk =   0.0219780
        k(   81) = (   0.2500000   0.2500000   0.2500000), wk =   0.0219780
        k(   82) = (   0.2750000   0.2750000   0.2750000), wk =   0.0219780
        k(   83) = (   0.3000000   0.3000000   0.3000000), wk =   0.0219780
        k(   84) = (   0.3250000   0.3250000   0.3250000), wk =   0.0219780
        k(   85) = (   0.3500000   0.3500000   0.3500000), wk =   0.0219780
        k(   86) = (   0.3750000   0.3750000   0.3750000), wk =   0.0219780
        k(   87) = (   0.4000000   0.4000000   0.4000000), wk =   0.0219780
        k(   88) = (   0.4250000   0.4250000   0.4250000), wk =   0.0219780
        k(   89) = (   0.4500000   0.4500000   0.4500000), wk =   0.0219780
        k(   90) = (   0.4750000   0.4750000   0.4750000), wk =   0.0219780
        k(   91) = (   0.5000000   0.5000000   0.5000000), wk =   0.0219780

     Dense  grid:    12149 G-vectors     FFT dimensions: (  30,  30,  30)

     Smooth grid:     9093 G-vectors     FFT dimensions: (  25,  25,  25)

     Estimated max dynamical RAM per process >       4.97 MB

     Estimated total dynamical RAM >      49.73 MB

     The potential is recalculated from file :
     ./work/POSCAR.save/charge-density

     Starting wfcs are   13 randomized atomic wfcs +   13 random wfcs
     Checking if some PAW data can be deallocated... 

     Band Structure Calculation
     Davidson diagonalization with overlap

     ethr =  6.64E-07,  avg # of iterations = 19.0

     total cpu time spent up to now is        4.2 secs

     End of band structure calculation

          k = 0.0000 0.5000 0.5000 (  1132 PWs)   bands (ev):

   -26.5144  -9.8081  -9.8081  -8.7954   6.7243   8.6567  11.4332  11.4332
    12.6296  12.6296  15.2080  18.3747  19.0835  19.5967  19.5967  20.0255
    24.6911  27.3731  27.3731  29.9786  30.4957  30.4957  31.2217  31.2852
    35.1971  35.1971

          k = 0.0500 0.5000 0.5000 (  1140 PWs)   bands (ev):

   -26.5123  -9.8051  -9.8051  -8.8192   6.7440   8.7519  11.1084  11.1084
    12.9720  12.9720  15.2129  17.9960  19.0846  19.6517  19.6517  20.3627
    24.8036  27.3876  27.3876  29.8733  30.3103  30.3103  31.1118  31.3098
    35.0936  35.4538

          k = 0.1000 0.5000 0.5000 (  1132 PWs)   bands (ev):

   -26.5061  -9.7962  -9.7962  -8.8872   6.8023   9.0341  10.5340  10.5340
    13.5952  13.5952  15.2272  17.2679  19.0851  19.8177  19.8177  20.9544
    25.1522  27.4299  27.4299  29.5695  29.8540  29.8540  30.8195  31.3832
    33.3750  35.4276

          k = 0.1500 0.5000 0.5000 (  1136 PWs)   bands (ev):

   -26.4965  -9.7824  -9.7824  -8.9912   6.8970   9.4935   9.9508   9.9508
    14.2468  14.2468  15.2495  16.4837  19.0769  20.0964  20.0964  21.4891
    25.7507  27.4963  27.4963  29.0789  29.2931  29.2931  30.4225  31.5036
    31.6935  34.8565

          k = 0.2000 0.5000 0.5000 (  1132 PWs)   bands (ev):

   -26.4843  -9.7648  -9.7648  -9.1192   7.0236   9.4109   9.4109  10.1150
    14.8599  14.8599  15.2780  15.7214  19.0438  20.4845  20.4845  21.9004
    26.5795  27.5785  27.5785  28.3491  28.7450  28.7450  29.9917  30.2613
    31.6678  34.3081

          k = 0.2500 0.5000 0.5000 (  1128 PWs)   bands (ev):

   -26.4708  -9.7453  -9.7453  -9.2575   7.1752   8.9340   8.9340  10.8795
    15.0137  15.3101  15.4013  15.4013  18.9588  20.9647  20.9647  22.2005
    27.2928  27.5760  27.6522  27.6522  28.2984  28.2984  29.2655  29.5755
    31.8702  33.8446

          k = 0.3000 0.5000 0.5000 (  1120 PWs)   bands (ev):

   -26.4572  -9.7256  -9.7256  -9.3920   7.3415   8.5314   8.5314  11.7648
    14.3833  15.3425  15.8528  15.8528  18.7791  21.4959  21.4959  22.4193
    26.0805  27.6362  27.6362  28.0805  28.0805  28.6303  28.6481  29.2048
    32.1009  33.5310

          k = 0.3500 0.5000 0.5000 (  1120 PWs)   bands (ev):

   -26.4448  -9.7077  -9.7077  -9.5105   7.5072   8.2110   8.2110  12.7436
    13.8517  15.3723  16.2066  16.2066  18.4465  22.0108  22.0108  22.5788
    24.9800  27.5372  27.5372  28.1204  28.1204  28.1876  28.8999  29.6576
    32.3437  33.4805

          k = 0.4000 0.5000 0.5000 (  1112 PWs)   bands (ev):

   -26.4350  -9.6934  -9.6934  -9.6027   7.6523   7.9782   7.9782  13.4431
    13.7782  15.3962  16.4606  16.4606  17.9100  22.4292  22.4292  22.6900
    24.1476  27.5252  27.5252  27.8778  28.2533  28.2533  28.6739  30.3966
    32.5707  33.8796

          k = 0.4500 0.5000 0.5000 (  1088 PWs)   bands (ev):

   -26.4286  -9.6841  -9.6841  -9.6610   7.7532   7.8370   7.8370  13.1832
    14.7936  15.4116  16.6137  16.6137  17.1923  22.6916  22.6916  22.7565
    23.6498  27.5896  27.5896  27.6907  28.4082  28.4082  28.5351  30.7508
    32.7402  33.1422

          k = 0.5000 0.5000 0.5000 (  1088 PWs)   bands (ev):

   -26.4264  -9.6809  -9.6809  -9.6809   7.7897   7.7897   7.7897  13.0937
    15.4170  15.4170  16.6649  16.6649  16.6649  22.7787  22.7787  22.7787
    23.4874  27.6278  27.6278  27.6278  28.4883  28.4883  28.4883  30.8400
    32.8043  32.8043

          k = 0.4750 0.4750 0.4750 (  1088 PWs)   bands (ev):

   -26.4281  -9.6780  -9.6773  -9.6773   7.7853   7.8136   7.8136  13.1611
    15.1375  15.1375  16.5135  16.9458  16.9458  22.7276  22.7276  22.7306
    23.6123  27.5507  27.5507  27.7459  28.3524  28.5196  28.5196  30.7817
    32.9511  32.9511

          k = 0.4500 0.4500 0.4500 (  1112 PWs)   bands (ev):

   -26.4330  -9.6695  -9.6663  -9.6663   7.7745   7.8849   7.8849  13.3598
    14.6002  14.6002  16.1000  17.4837  17.4837  22.5604  22.5895  22.5895
    23.9903  27.2737  27.2737  27.9971  28.0782  28.6872  28.6872  30.6331
    33.3317  33.3317

          k = 0.4250 0.4250 0.4250 (  1124 PWs)   bands (ev):

   -26.4411  -9.6550  -9.6482  -9.6482   7.7634   8.0028   8.0028  13.6797
    14.0124  14.0124  15.5109  18.0587  18.0587  22.2885  22.4039  22.4039
    24.5569  26.8198  26.8198  27.5178  28.5650  29.0154  29.0154  30.4628
    33.6303  33.6303

          k = 0.4000 0.4000 0.4000 (  1121 PWs)   bands (ev):

   -26.4521  -9.6346  -9.6231  -9.6231   7.7590   8.1656   8.1656  13.4219
    13.4219  14.1051  14.8281  18.5970  18.5970  21.9643  22.2238  22.2238
    25.2251  26.2790  26.2790  26.9852  29.0812  29.4356  29.4356  30.4027
    33.3638  33.3638

          k = 0.3750 0.3750 0.3750 (  1124 PWs)   bands (ev):

   -26.4658  -9.6085  -9.5914  -9.5914   7.7663   8.3708   8.3708  12.8450
    12.8450  14.0968  14.6329  19.0362  19.0362  21.6267  22.1104  22.1104
    25.7235  25.7235  25.9352  26.4393  29.3458  29.8635  29.8635  30.7341
    33.1265  33.1265

          k = 0.3500 0.3500 0.3500 (  1130 PWs)   bands (ev):

   -26.4818  -9.5766  -9.5537  -9.5537   7.7854   8.6139   8.6139  12.2912
    12.2912  13.3847  15.2178  19.3090  19.3090  21.3063  22.1145  22.1145
    25.2178  25.2178  25.9016  26.6510  29.3118  30.2058  30.2058  31.4974
    33.1129  33.1129

          k = 0.3250 0.3250 0.3250 (  1130 PWs)   bands (ev):

   -26.4999  -9.5390  -9.5106  -9.5106   7.8095   8.8872   8.8872  11.7703
    11.7703  12.7113  15.8500  19.3856  19.3856  21.0339  22.2107  22.2107
    24.8490  24.8490  25.3841  27.3448  29.2027  30.3978  30.3978  32.4552
    33.3582  33.3582

          k = 0.3000 0.3000 0.3000 (  1142 PWs)   bands (ev):

   -26.5195  -9.4960  -9.4628  -9.4628   7.8218   9.1740   9.1740  11.2993
    11.2993  12.1152  16.4862  19.3065  19.3065  20.8510  22.2514  22.2514
    24.7458  24.7458  24.8942  27.9660  29.1319  30.4615  30.4615  33.4470
    33.7334  33.7334

          k = 0.2750 0.2750 0.2750 (  1145 PWs)   bands (ev):

   -26.5401  -9.4482  -9.4112  -9.4112   7.7938   9.4306   9.4306  10.9210
    10.9210  11.6383  17.0613  19.1386  19.1386  20.8224  22.1073  22.1073
    24.4364  24.9844  24.9844  28.3382  29.2598  30.4659  30.4659  33.3006
    33.7459  33.7459

          k = 0.2500 0.2500 0.2500 (  1138 PWs)   bands (ev):

   -26.5613  -9.3961  -9.3569  -9.3569   7.6911   9.5409   9.5409  10.7492
    10.7492  11.3239  17.4879  18.9314  18.9314  21.0341  21.8222  21.8222
    24.0134  25.4782  25.4782  28.2849  29.6758  30.4605  30.4605  32.2917
    32.9814  32.9814

          k = 0.2250 0.2250 0.2250 (  1147 PWs)   bands (ev):

   -26.5825  -9.3407  -9.3012  -9.3012   7.4918   9.3988   9.3988  10.8859
    10.8859  11.1989  17.7112  18.7134  18.7134  21.4950  21.4950  21.5387
    23.6273  26.0928  26.0928  27.9121  30.0423  30.4542  30.4542  31.6895
    31.9869  31.9869

          k = 0.2000 0.2000 0.2000 (  1135 PWs)   bands (ev):

   -26.6032  -9.2832  -9.2455  -9.2455   7.2063   9.1183   9.1183  11.2118
    11.2118  11.2551  17.7647  18.5003  18.5003  21.1889  21.1889  22.2993
    23.2795  26.7084  26.7084  27.2376  30.0933  30.3505  30.3505  31.1790
    31.1790  31.7940

          k = 0.1750 0.1750 0.1750 (  1141 PWs)   bands (ev):

   -26.6230  -9.2253  -9.1911  -9.1911   6.8704   8.8127   8.8127  11.4558
    11.6051  11.6051  17.7235  18.3004  18.3004  20.9398  20.9398  22.9709
    23.2330  26.3408  27.1260  27.1260  29.9742  29.9742  30.0585  30.9648
    30.9648  32.3071

          k = 0.1500 0.1500 0.1500 (  1141 PWs)   bands (ev):

   -26.6412  -9.1688  -9.1397  -9.1397   6.5226   8.5237   8.5237  11.7578
    12.0137  12.0137  17.6470  18.1184  18.1184  20.7720  20.7720  22.7024
    24.2484  25.3787  26.9960  26.9960  29.9518  29.9518  30.1124  31.0759
    31.0759  32.9252

          k = 0.1250 0.1250 0.1250 (  1135 PWs)   bands (ev):

   -26.6575  -9.1157  -9.0929  -9.0929   6.1930   8.2670   8.2670  12.1212
    12.4087  12.4087  17.5711  17.9572  17.9572  20.7044  20.7044  22.4745
    24.2757  25.4636  26.3366  26.3366  30.2623  30.4902  30.4902  31.2909
    31.2909  33.5512

          k = 0.1000 0.1000 0.1000 (  1162 PWs)   bands (ev):

   -26.6714  -9.0682  -9.0522  -9.0522   5.9022   8.0500   8.0500  12.5087
    12.7669  12.7669  17.5169  17.8193  17.8193  20.7525  20.7525  22.2874
    23.3698  25.4878  25.4878  26.5443  30.5091  31.2862  31.2862  31.5768
    31.5768  34.1374

          k = 0.0750 0.0750 0.0750 (  1153 PWs)   bands (ev):

   -26.6826  -9.0285  -9.0188  -9.0188   5.6643   7.8774   7.8774  12.8816
    13.0683  13.0683  17.4960  17.7072  17.7072  20.9265  20.9265  22.1417
    22.5431  24.6171  24.6171  27.5731  30.8860  31.8923  31.8923  32.2173
    32.2173  34.6232

          k = 0.0500 0.0500 0.0500 (  1171 PWs)   bands (ev):

   -26.6909  -8.9986  -8.9940  -8.9940   5.4885   7.7522   7.7522  13.1964
    13.2956  13.2956  17.5089  17.6241  17.6241  21.2277  21.2277  21.8695
    22.0374  23.7908  23.7908  28.3990  31.4631  32.2740  32.2740  33.1787
    33.1787  34.6558

          k = 0.0250 0.0250 0.0250 (  1171 PWs)   bands (ev):

   -26.6959  -8.9800  -8.9788  -8.9788   5.3807   7.6763   7.6763  13.4090
    13.4366  13.4366  17.5392  17.5727  17.5727  21.4171  21.6355  21.6355
    21.9748  23.0593  23.0593  28.9005  32.2594  32.6597  32.6597  34.0137
    34.0137  34.2743

          k = 0.0000 0.0000 0.0000 (  1189 PWs)   bands (ev):

   -26.6976  -8.9737  -8.9737  -8.9737   5.3444   7.6509   7.6509  13.4843
    13.4843  13.4843  17.5553  17.5553  17.5553  21.2555  21.9539  21.9539
    21.9539  22.6316  22.6316  29.0610  32.8814  32.8814  32.8814  33.8116
    33.8116  33.8116

          k = 0.0500 0.0000 0.0000 (  1165 PWs)   bands (ev):

   -26.6954  -9.0000  -8.9714  -8.9714   5.3923   7.6642   7.7053  13.3708
    13.3708  13.4911  17.3306  17.6826  17.6826  21.2416  21.4485  22.0285
    22.0285  22.7494  23.4061  28.8650  32.1980  32.1980  33.1479  33.3846
    33.5892  34.5237

          k = 0.1000 0.0000 0.0000 (  1161 PWs)   bands (ev):

   -26.6888  -9.0757  -8.9650  -8.9650   5.5292   7.7033   7.8677  13.0758
    13.0758  13.5108  16.8023  18.0133  18.0133  20.3394  21.7969  22.2548
    22.2548  23.1852  24.4941  28.3956  31.2600  31.2600  31.7251  32.7512
    33.8286  35.0105

          k = 0.1500 0.0000 0.0000 (  1145 PWs)   bands (ev):

   -26.6787  -9.1912  -8.9550  -8.9550   5.7373   7.7657   8.1319  12.6874
    12.6874  13.5418  16.1841  18.4465  18.4465  19.4944  22.0316  22.6364
    22.6364  23.9856  25.6480  27.8277  29.9800  30.3785  30.3785  31.9579
    34.7495  35.0449

          k = 0.2000 0.0000 0.0000 (  1149 PWs)   bands (ev):

   -26.6658  -9.3329  -8.9423  -8.9423   5.9938   7.8473   8.4782  12.2761
    12.2761  13.5815  15.6073  18.7265  18.8994  18.8994  22.1517  23.1651
    23.1651  24.9926  26.8454  27.2592  28.3149  29.5986  29.5986  31.2298
    35.0884  35.5578

          k = 0.2500 0.0000 0.0000 (  1141 PWs)   bands (ev):

   -26.6515  -9.4850  -8.9282  -8.9282   6.2781   7.9418   8.8626  11.8859
    11.8859  13.6263  15.1620  18.0469  19.3249  19.3249  22.1553  23.8022
    23.8022  26.0159  26.7371  26.8353  28.0699  28.9670  28.9670  30.6624
    35.1358  35.6111

          k = 0.3000 0.0000 0.0000 (  1145 PWs)   bands (ev):

   -26.6371  -9.6326  -8.9140  -8.9140   6.5729   8.0411   9.2124  11.5430
    11.5430  13.6720  14.9333  17.4663  19.7027  19.7027  21.9310  24.4540
    24.4540  25.5923  26.2863  26.9411  28.5691  28.5691  29.2987  30.4421
    35.1806  35.6534

          k = 0.3500 0.0000 0.0000 (  1157 PWs)   bands (ev):

   -26.6241  -9.7621  -8.9012  -8.9012   6.8614   8.1353   9.4473  11.2635
    11.2635  13.7141  14.9947  16.9964  20.0229  20.0229  21.3194  24.9117
    24.9570  24.9570  25.9219  27.3313  28.5517  28.5517  30.4929  30.8605
    35.2139  35.6367

          k = 0.4000 0.0000 0.0000 (  1157 PWs)   bands (ev):

   -26.6137  -9.8626  -8.8909  -8.8909   7.1191   8.2137   9.5353  11.0578
    11.0578  13.7481  15.3512  16.6490  20.2741  20.2741  20.3949  24.6794
    25.1825  25.1825  25.6544  27.2878  29.0187  29.0187  31.5789  31.8978
    34.5922  34.5923

          k = 0.4500 0.0000 0.0000 (  1145 PWs)   bands (ev):

   -26.6070  -9.9260  -8.8843  -8.8843   7.3075   8.2658   9.5266  10.9321
    10.9321  13.7703  15.8649  16.4352  19.4857  20.4380  20.4380  24.6589
    25.2120  25.2120  25.4912  27.1275  29.8100  29.8100  32.4100  33.2519
    33.2760  33.2760

          k = 0.5000 0.0000 0.0000 (  1140 PWs)   bands (ev):

   -26.6047  -9.9477  -8.8820  -8.8820   7.3785   8.2841   9.5092  10.8898
    10.8898  13.7780  16.1553  16.3629  19.0583  20.4955  20.4955  24.6724
    25.2017  25.2017  25.4362  27.0530  30.3380  30.3380  32.5869  32.5869
    32.7410  34.5214

          k = 0.5000 0.0500 0.0000 (  1146 PWs)   bands (ev):

   -26.6025  -9.9444  -8.9070  -8.8800   7.4366   8.3324   9.3568  10.9015
    10.9972  13.6883  16.1484  16.4744  19.0694  20.2994  20.6616  24.4599
    24.8304  24.9478  26.1933  27.4725  30.1577  30.3477  32.2311  32.3306
    32.6431  34.7795

          k = 0.5000 0.1000 0.0000 (  1138 PWs)   bands (ev):

   -26.5962  -9.9347  -8.9784  -8.8739   7.5900   8.4928   9.0034  10.9358
    11.2272  13.4461  16.1243  16.7913  19.0989  19.8356  21.1332  23.6482
    24.1608  25.6467  27.0443  28.2533  29.6619  30.3762  31.3093  31.6234
    32.8160  34.9867

          k = 0.5000 0.1500 0.0000 (  1142 PWs)   bands (ev):

   -26.5863  -9.9195  -9.0877  -8.8644   7.7843   8.5783   8.8037  10.9903
    11.4792  13.1110  16.0726  17.2646  19.1349  19.2979  21.8506  22.8856
    23.5296  26.5387  27.8524  28.8739  28.8804  30.2027  30.4211  31.2817
    33.1152  35.1202

          k = 0.5000 0.2000 0.0000 (  1138 PWs)   bands (ev):

   -26.5738  -9.9003  -9.2219  -8.8524   7.9724   8.1472   9.2864  11.0613
    11.7218  12.7414  15.9776  17.8215  18.8112  19.1519  22.1874  22.7550
    23.0644  26.9368  28.2932  28.5786  28.9042  29.4031  30.4789  31.6521
    33.5484  35.2601

          k = 0.5000 0.2500 0.0000 (  1134 PWs)   bands (ev):

   -26.5599  -9.8788  -9.3665  -8.8391   7.7451   8.1434   9.9140  11.1429
    11.9495  12.3809  15.8275  18.3741  18.4469  19.1107  21.5665  22.8684
    23.8023  25.7571  28.5009  28.6183  29.1916  29.3935  30.5445  32.5361
    34.1038  35.3644

          k = 0.5000 0.3000 0.0000 (  1134 PWs)   bands (ev):

   -26.5459  -9.8571  -9.5071  -8.8257   7.3938   8.3004  10.6312  11.2281
    12.0583  12.1597  15.6319  18.2394  18.8407  18.9832  21.0348  23.0111
    24.2771  24.9621  28.0348  28.2208  29.6785  30.5798  30.6117  33.5113
    34.7297  35.0500

          k = 0.5000 0.3500 0.0000 (  1138 PWs)   bands (ev):

   -26.5333  -9.8375  -9.6306  -8.8135   7.1077   8.4406  11.3082  11.3654
    11.7923  12.3458  15.4325  18.1963  18.7827  19.1898  20.6044  22.8195
    23.4523  26.2127  27.6473  27.8592  30.0431  30.6729  31.9164  33.9140
    34.3286  35.0254

          k = 0.5000 0.4000 0.0000 (  1134 PWs)   bands (ev):

   -26.5232  -9.8217  -9.7266  -8.8039   6.8968   8.5546  11.3742  11.5951
    12.0182  12.4959  15.2845  18.3267  18.5786  19.4203  20.2867  21.4716
    24.0280  27.4092  27.5349  27.5918  30.2963  30.7186  32.6576  33.2772
    33.5677  34.8516

          k = 0.5000 0.4500 0.0000 (  1132 PWs)   bands (ev):

   -26.5167  -9.8116  -9.7873  -8.7976   6.7677   8.6301  11.4179  11.4740
    12.4700  12.5948  15.2188  18.4291  18.6635  19.5531  20.0914  20.3124
    24.5079  27.3506  27.4282  28.8975  30.4460  30.7237  31.6770  32.1078
    34.5349  35.1168

          k = 0.5000 0.5000 0.0000 (  1132 PWs)   bands (ev):

   -26.5144  -9.8081  -9.8081  -8.7954   6.7243   8.6567  11.4332  11.4332
    12.6296  12.6296  15.2080  18.3747  19.0835  19.5967  19.5967  20.0255
    24.6911  27.3731  27.3731  29.9786  30.4957  30.4957  31.2217  31.2852
    35.1971  35.1971

          k = 0.4750 0.4750 0.0000 (  1132 PWs)   bands (ev):

   -26.5155  -9.8041  -9.8034  -8.7965   6.7460   8.6432  11.4366  11.4426
    12.5776  12.5841  15.2116  18.3951  18.7850  19.6760  19.9510  20.0585
    24.6045  27.2115  27.5433  29.3585  30.1294  31.1045  31.4842  31.5902
    34.9780  34.9949

          k = 0.4500 0.4500 0.0000 (  1132 PWs)   bands (ev):

   -26.5189  -9.7921  -9.7896  -8.7997   6.8101   8.6037  11.4470  11.4707
    12.4269  12.4516  15.2259  18.2436  18.6094  19.9045  20.1567  20.4955
    24.4122  26.8033  27.9928  28.5394  29.5475  31.8803  32.0031  32.1774
    34.4636  34.4744

          k = 0.4250 0.4250 0.0000 (  1128 PWs)   bands (ev):

   -26.5244  -9.7721  -9.7667  -8.8050   6.9137   8.5401  11.4654  11.5172
    12.1915  12.2436  15.2584  17.8737  18.7497  20.2590  20.3178  21.0509
    24.2333  26.2759  27.7178  28.6222  28.9437  32.5912  32.7075  32.7840
    33.7780  33.8275

          k = 0.4000 0.4000 0.0000 (  1131 PWs)   bands (ev):

   -26.5319  -9.7445  -9.7352  -8.8123   7.0503   8.4571  11.4933  11.5816
    11.8908  11.9765  15.3148  17.5425  18.9406  20.5373  20.7104  21.5703
    24.1673  25.7138  26.9104  28.3406  29.3669  32.9993  33.0795  33.1440
    33.3763  33.5691

          k = 0.3750 0.3750 0.0000 (  1151 PWs)   bands (ev):

   -26.5413  -9.7094  -9.6959  -8.8213   7.2071   8.3639  11.5325  11.5448
    11.6634  11.6704  15.3976  17.2767  19.1264  20.8081  21.2270  22.0201
    24.2872  25.1663  26.1276  27.7445  30.1871  32.1944  32.3832  33.4348
    33.9272  34.3889

          k = 0.3500 0.3500 0.0000 (  1153 PWs)   bands (ev):

   -26.5522  -9.6671  -9.6493  -8.8318   7.3568   8.2814  11.1714  11.3487
    11.5849  11.7617  15.5066  17.0786  19.2708  21.1173  21.7696  22.4071
    24.6129  24.6751  25.3830  27.1586  30.9666  31.4895  31.6554  33.4584
    34.3959  35.1779

          k = 0.3250 0.3250 0.0000 (  1155 PWs)   bands (ev):

   -26.5645  -9.6183  -9.5965  -8.8437   7.4450   8.2520  10.7849  11.0395
    11.6525  11.8754  15.6401  16.9444  19.3534  21.4383  22.2640  22.7862
    24.3102  24.7028  25.0942  26.5854  30.5113  30.9300  32.0856  33.3170
    34.5577  34.7231

          k = 0.3000 0.3000 0.0000 (  1155 PWs)   bands (ev):

   -26.5778  -9.5637  -9.5385  -8.8565   7.4154   8.3104  10.3967  10.7792
    11.7368  12.0031  15.7956  16.8669  19.3780  21.7071  22.5409  23.2059
    24.1504  24.2332  25.6519  26.0273  29.7799  30.2216  33.0313  33.1014
    33.6290  34.8548

          k = 0.2750 0.2750 0.0000 (  1155 PWs)   bands (ev):

   -26.5918  -9.5042  -9.4765  -8.8701   7.2809   8.4084  10.0154  10.6153
    11.8392  12.1431  15.9701  16.8368  19.3677  21.7785  22.4724  23.6705
    23.8694  24.5573  25.4868  26.2038  29.1372  29.5495  32.6590  32.8610
    33.9878  34.7940

          k = 0.2500 0.2500 0.0000 (  1141 PWs)   bands (ev):

   -26.6061  -9.4408  -9.4120  -8.8839   7.0860   8.4607   9.6480  10.5987
    11.9605  12.2932  16.1600  16.8435  19.3518  21.5265  22.2243  23.9846
    24.1374  24.9671  25.0848  26.6376  28.7026  28.9507  31.6989  32.6208
    34.6035  34.8528

          k = 0.2250 0.2250 0.0000 (  1143 PWs)   bands (ev):

   -26.6204  -9.3751  -9.3464  -8.8979   6.8585   8.4272   9.3002  10.7484
    12.1007  12.4507  16.3608  16.8760  19.3576  21.0576  21.9466  24.3876
    24.4716  24.4963  25.5829  26.8522  28.5135  28.5942  30.8361  32.3952
    34.3509  35.1264

          k = 0.2000 0.2000 0.0000 (  1139 PWs)   bands (ev):

   -26.6344  -9.3085  -9.2815  -8.9115   6.6148   8.3264   8.9766  11.0332
    12.2590  12.6125  16.5669  16.9243  19.4075  20.5140  21.6958  24.0045
    24.5610  24.9339  25.8163  27.0516  28.4231  28.5105  30.3562  32.1936
    34.0813  34.8652

          k = 0.1750 0.1750 0.0000 (  1139 PWs)   bands (ev):

   -26.6476  -9.2429  -9.2188  -8.9245   6.3676   8.1960   8.6814  11.4029
    12.4336  12.7746  16.7715  16.9815  19.5177  19.9613  21.4955  23.5703
    24.2707  25.5548  25.6498  27.4350  28.0158  28.7982  30.5592  32.0240
    33.8201  34.6277

          k = 0.1500 0.1500 0.0000 (  1141 PWs)   bands (ev):

   -26.6599  -9.1803  -9.1601  -8.9365   6.1285   8.0629   8.4180  11.8148
    12.6212  12.9326  16.9663  17.0453  19.4281  19.6976  21.3598  23.1746
    23.7758  25.2335  26.2168  27.0180  28.2655  29.4833  31.1265  31.8954
    33.5811  34.4187

          k = 0.1250 0.1250 0.0000 (  1151 PWs)   bands (ev):

   -26.6708  -9.1227  -9.1070  -8.9472   5.9079   7.9414   8.1896  12.2351
    12.8164  13.0812  17.1187  17.1425  18.9313  19.9504  21.2985  22.8233
    23.2082  24.7279  26.1579  26.8940  29.0251  30.3165  31.8066  31.8203
    33.3721  34.2404

          k = 0.1000 0.1000 0.0000 (  1155 PWs)   bands (ev):

   -26.6801  -9.0721  -9.0611  -8.9564   5.7150   7.8384   7.9988  12.6340
    13.0108  13.2147  17.2068  17.2920  18.4852  20.2749  21.3181  22.5228
    22.6374  24.2047  25.2975  27.5562  29.8666  31.2268  31.8185  32.5197
    33.1976  34.0944

          k = 0.0750 0.0750 0.0000 (  1153 PWs)   bands (ev):

   -26.6876  -9.0304  -9.0238  -8.9638   5.5572   7.7569   7.8480  12.9825
    13.1924  13.3272  17.3118  17.4091  18.1053  20.6665  21.4199  22.1090
    22.2799  23.6967  24.4772  28.1598  30.7438  31.9211  32.1838  33.0601
    33.2305  33.9820

          k = 0.0500 0.0500 0.0000 (  1165 PWs)   bands (ev):

   -26.6931  -8.9993  -8.9962  -8.9692   5.4403   7.6981   7.7389  13.2537
    13.3445  13.4126  17.4243  17.4914  17.8103  21.1176  21.5958  21.6684
    22.1009  23.2263  23.7150  28.6457  31.6205  32.1668  32.9610  33.1653
    33.9004  33.9096

          k = 0.0250 0.0250 0.0000 (  1165 PWs)   bands (ev):

   -26.6965  -8.9801  -8.9793  -8.9725   5.3686   7.6627   7.6730  13.4256
    13.4476  13.4662  17.5179  17.5396  17.6209  21.3619  21.6138  21.8163
    21.9910  22.8285  23.0366  28.9560  32.4287  32.5638  32.9013  33.8077
    34.0619  34.2223

          k = 0.0000 0.0000 0.0000 (  1189 PWs)   bands (ev):

   -26.6976  -8.9737  -8.9737  -8.9737   5.3444   7.6509   7.6509  13.4843
    13.4843  13.4843  17.5553  17.5553  17.5553  21.2555  21.9539  21.9539
    21.9539  22.6316  22.6316  29.0610  32.8814  32.8814  32.8814  33.8116
    33.8116  33.8116

          k = 0.0250 0.0250 0.0250 (  1171 PWs)   bands (ev):

   -26.6959  -8.9800  -8.9788  -8.9788   5.3807   7.6763   7.6763  13.4090
    13.4366  13.4366  17.5392  17.5727  17.5727  21.4171  21.6355  21.6355
    21.9748  23.0593  23.0593  28.9005  32.2594  32.6597  32.6597  34.0137
    34.0137  34.2743

          k = 0.0500 0.0500 0.0500 (  1171 PWs)   bands (ev):

   -26.6909  -8.9986  -8.9940  -8.9940   5.4885   7.7522   7.7522  13.1964
    13.2956  13.2956  17.5089  17.6241  17.6241  21.2277  21.2277  21.8695
    22.0374  23.7908  23.7908  28.3990  31.4631  32.2740  32.2740  33.1787
    33.1787  34.6559

          k = 0.0750 0.0750 0.0750 (  1153 PWs)   bands (ev):

   -26.6826  -9.0285  -9.0188  -9.0188   5.6643   7.8774   7.8774  12.8816
    13.0683  13.0683  17.4960  17.7072  17.7072  20.9265  20.9265  22.1417
    22.5431  24.6171  24.6171  27.5731  30.8860  31.8923  31.8923  32.2173
    32.2173  34.6232

          k = 0.1000 0.1000 0.1000 (  1162 PWs)   bands (ev):

   -26.6714  -9.0682  -9.0522  -9.0522   5.9022   8.0500   8.0500  12.5087
    12.7669  12.7669  17.5169  17.8193  17.8193  20.7525  20.7525  22.2874
    23.3698  25.4878  25.4878  26.5443  30.5091  31.2862  31.2862  31.5768
    31.5768  34.1374

          k = 0.1250 0.1250 0.1250 (  1135 PWs)   bands (ev):

   -26.6575  -9.1157  -9.0929  -9.0929   6.1930   8.2670   8.2670  12.1212
    12.4087  12.4087  17.5711  17.9572  17.9572  20.7044  20.7044  22.4745
    24.2757  25.4636  26.3366  26.3366  30.2623  30.4902  30.4902  31.2909
    31.2909  33.5512

          k = 0.1500 0.1500 0.1500 (  1141 PWs)   bands (ev):

   -26.6412  -9.1688  -9.1397  -9.1397   6.5226   8.5237   8.5237  11.7578
    12.0137  12.0137  17.6470  18.1184  18.1184  20.7720  20.7720  22.7024
    24.2484  25.3787  26.9960  26.9960  29.9518  29.9518  30.1124  31.0759
    31.0759  32.9252

          k = 0.1750 0.1750 0.1750 (  1141 PWs)   bands (ev):

   -26.6230  -9.2253  -9.1911  -9.1911   6.8704   8.8127   8.8127  11.4558
    11.6051  11.6051  17.7235  18.3004  18.3004  20.9398  20.9398  22.9709
    23.2330  26.3408  27.1260  27.1260  29.9742  29.9742  30.0585  30.9648
    30.9648  32.3071

          k = 0.2000 0.2000 0.2000 (  1135 PWs)   bands (ev):

   -26.6032  -9.2832  -9.2455  -9.2455   7.2063   9.1183   9.1183  11.2118
    11.2118  11.2551  17.7647  18.5003  18.5003  21.1889  21.1889  22.2993
    23.2795  26.7084  26.7084  27.2376  30.0933  30.3505  30.3505  31.1790
    31.1790  31.7940

          k = 0.2250 0.2250 0.2250 (  1147 PWs)   bands (ev):

   -26.5825  -9.3407  -9.3012  -9.3012   7.4918   9.3988   9.3988  10.8859
    10.8859  11.1989  17.7112  18.7134  18.7134  21.4950  21.4950  21.5387
    23.6273  26.0928  26.0928  27.9121  30.0423  30.4542  30.4542  31.6895
    31.9869  31.9869

          k = 0.2500 0.2500 0.2500 (  1138 PWs)   bands (ev):

   -26.5613  -9.3961  -9.3569  -9.3569   7.6911   9.5409   9.5409  10.7492
    10.7492  11.3239  17.4879  18.9314  18.9314  21.0341  21.8222  21.8222
    24.0134  25.4782  25.4782  28.2849  29.6758  30.4605  30.4605  32.2917
    32.9814  32.9814

          k = 0.2750 0.2750 0.2750 (  1145 PWs)   bands (ev):

   -26.5401  -9.4482  -9.4112  -9.4112   7.7938   9.4306   9.4306  10.9210
    10.9210  11.6383  17.0613  19.1386  19.1386  20.8224  22.1073  22.1073
    24.4364  24.9844  24.9844  28.3382  29.2598  30.4659  30.4659  33.3006
    33.7459  33.7459

          k = 0.3000 0.3000 0.3000 (  1142 PWs)   bands (ev):

   -26.5195  -9.4960  -9.4628  -9.4628   7.8218   9.1740   9.1740  11.2993
    11.2993  12.1152  16.4862  19.3065  19.3065  20.8510  22.2514  22.2514
    24.7458  24.7458  24.8942  27.9660  29.1319  30.4615  30.4615  33.4470
    33.7334  33.7334

          k = 0.3250 0.3250 0.3250 (  1130 PWs)   bands (ev):

   -26.4999  -9.5390  -9.5106  -9.5106   7.8095   8.8872   8.8872  11.7703
    11.7703  12.7113  15.8500  19.3856  19.3856  21.0339  22.2107  22.2107
    24.8490  24.8490  25.3841  27.3448  29.2027  30.3978  30.3978  32.4552
    33.3582  33.3582

          k = 0.3500 0.3500 0.3500 (  1130 PWs)   bands (ev):

   -26.4818  -9.5766  -9.5537  -9.5537   7.7854   8.6139   8.6139  12.2912
    12.2912  13.3847  15.2178  19.3090  19.3090  21.3063  22.1145  22.1145
    25.2178  25.2178  25.9016  26.6510  29.3118  30.2058  30.2058  31.4974
    33.1129  33.1129

          k = 0.3750 0.3750 0.3750 (  1124 PWs)   bands (ev):

   -26.4658  -9.6085  -9.5914  -9.5914   7.7663   8.3708   8.3708  12.8450
    12.8450  14.0968  14.6329  19.0362  19.0362  21.6267  22.1104  22.1104
    25.7235  25.7235  25.9352  26.4393  29.3458  29.8635  29.8635  30.7341
    33.1265  33.1265

          k = 0.4000 0.4000 0.4000 (  1121 PWs)   bands (ev):

   -26.4521  -9.6346  -9.6231  -9.6231   7.7590   8.1656   8.1656  13.4219
    13.4219  14.1051  14.8281  18.5970  18.5970  21.9643  22.2238  22.2238
    25.2251  26.2790  26.2790  26.9852  29.0812  29.4356  29.4356  30.4027
    33.3638  33.3638

          k = 0.4250 0.4250 0.4250 (  1124 PWs)   bands (ev):

   -26.4411  -9.6550  -9.6482  -9.6482   7.7634   8.0028   8.0028  13.6797
    14.0124  14.0124  15.5109  18.0587  18.0587  22.2885  22.4039  22.4039
    24.5569  26.8198  26.8198  27.5178  28.5650  29.0154  29.0154  30.4628
    33.6303  33.6303

          k = 0.4500 0.4500 0.4500 (  1112 PWs)   bands (ev):

   -26.4330  -9.6695  -9.6663  -9.6663   7.7745   7.8849   7.8849  13.3598
    14.6002  14.6002  16.1000  17.4837  17.4837  22.5604  22.5895  22.5895
    23.9903  27.2737  27.2737  27.9971  28.0782  28.6872  28.6872  30.6331
    33.3317  33.3317

          k = 0.4750 0.4750 0.4750 (  1088 PWs)   bands (ev):

   -26.4281  -9.6780  -9.6773  -9.6773   7.7853   7.8136   7.8136  13.1611
    15.1375  15.1375  16.5135  16.9458  16.9458  22.7276  22.7276  22.7306
    23.6123  27.5507  27.5507  27.7459  28.3524  28.5196  28.5196  30.7817
    32.9511  32.9512

          k = 0.5000 0.5000 0.5000 (  1088 PWs)   bands (ev):

   -26.4264  -9.6809  -9.6809  -9.6809   7.7897   7.7897   7.7897  13.0937
    15.4170  15.4170  16.6649  16.6649  16.6649  22.7787  22.7787  22.7787
    23.4874  27.6278  27.6278  27.6278  28.4883  28.4883  28.4883  30.8400
    32.8043  32.8043

     Writing all to output data dir ./work/POSCAR.save/

     init_run     :      0.21s CPU      0.24s WALL (       1 calls)
     electrons    :      3.29s CPU      3.64s WALL (       1 calls)

     Called by init_run:
     wfcinit      :      0.00s CPU      0.01s WALL (       1 calls)
     potinit      :      0.07s CPU      0.09s WALL (       1 calls)
     hinit0       :      0.13s CPU      0.13s WALL (       1 calls)

     Called by electrons:
     c_bands      :      3.29s CPU      3.64s WALL (       1 calls)
     v_of_rho     :      0.00s CPU      0.00s WALL (       1 calls)
     newd         :      0.00s CPU      0.00s WALL (       1 calls)
     PAW_pot      :      0.03s CPU      0.04s WALL (       1 calls)

     Called by c_bands:
     init_us_2    :      0.00s CPU      0.00s WALL (      91 calls)
     init_us_2:cp :      0.00s CPU      0.00s WALL (      91 calls)
     cegterg      :      3.06s CPU      3.15s WALL (     122 calls)

     Called by *egterg:
     cdiaghg      :      1.09s CPU      1.13s WALL (    1823 calls)
     h_psi        :      1.57s CPU      1.61s WALL (    1945 calls)
     s_psi        :      0.02s CPU      0.02s WALL (    1945 calls)
     g_psi        :      0.02s CPU      0.02s WALL (    1732 calls)

     Called by h_psi:
     h_psi:calbec :      0.08s CPU      0.08s WALL (    1945 calls)
     vloc_psi     :      1.45s CPU      1.49s WALL (    1945 calls)
     add_vuspsi   :      0.03s CPU      0.03s WALL (    1945 calls)

     General routines
     calbec       :      0.08s CPU      0.08s WALL (    1945 calls)
     fft          :      0.11s CPU      0.11s WALL (      13 calls)
     ffts         :      0.03s CPU      0.03s WALL (       1 calls)
     fftw         :      1.33s CPU      1.36s WALL (   52730 calls)
     interpolate  :      0.03s CPU      0.03s WALL (       1 calls)
     davcio       :      0.01s CPU      0.20s WALL (     182 calls)

     Parallel routines

     PWSCF        :      3.85s CPU      5.10s WALL


   This run was terminated on:  22:42:26  15May2024            

=------------------------------------------------------------------------------=
   JOB DONE.
=------------------------------------------------------------------------------=
