
     Program PWSCF v.7.1 starts on 18May2024 at 16: 6:39 

     This program is part of the open-source Quantum ESPRESSO suite
     for quantum simulation of materials; please cite
         "P. Giannozzi et al., J. Phys.:Condens. Matter 21 395502 (2009);
         "P. Giannozzi et al., J. Phys.:Condens. Matter 29 465901 (2017);
         "P. Giannozzi et al., J. Chem. Phys. 152 154105 (2020);
          URL http://www.quantum-espresso.org", 
     in publications or presentations arising from this work. More details at
     http://www.quantum-espresso.org/quote

     Parallel version (MPI & OpenMP), running on      10 processor cores
     Number of MPI processes:                10
     Threads/MPI process:                     1

     MPI processes distributed on     1 nodes
     14321 MiB available memory on the printing compute node when the environment starts

     Waiting for input...
     Reading input from standard input

     Current dimensions of program PWSCF are:
     Max number of different atomic species (ntypx) = 10
     Max number of k-points (npk) =  40000
     Max angular momentum in pseudopotentials (lmaxx) =  4

     Atomic positions and unit cell read from directory:
     ./work/POSCAR.save/

     file Mo.pbe-spn-kjpaw_psl.1.0.0.UPF: wavefunction(s)  4S 4D renormalized
     Message from routine setup:
     using ibrav=0 with symmetry is DISCOURAGED, use correct ibrav instead

     R & G space division:  proc/nbgrp/npool/nimage =      10
     Subspace diagonalization in iterative solution of the eigenvalue problem:
     a serial algorithm will be used


     Parallelization info
     --------------------
     sticks:   dense  smooth     PW     G-vecs:    dense   smooth      PW
     Min          61      39     12                  968      492      94
     Max          63      40     13                  970      493      97
     Sum         619     395    129                 9693     4921     959

     Using Slab Decomposition



     bravais-lattice index     =            0
     lattice parameter (alat)  =       5.1840  a.u.
     unit-cell volume          =     107.2423 (a.u.)^3
     number of atoms/cell      =            1
     number of atomic types    =            1
     number of electrons       =        14.00
     number of Kohn-Sham states=           11
     kinetic-energy cutoff     =      49.0000  Ry
     charge density cutoff     =     306.0000  Ry
     Exchange-correlation= SLA  PW   PBX  PBC
                           (   1   4   3   4   0   0   0)

     celldm(1)=   5.183972  celldm(2)=   0.000000  celldm(3)=   0.000000
     celldm(4)=   0.000000  celldm(5)=   0.000000  celldm(6)=   0.000000

     crystal axes: (cart. coord. in units of alat)
               a(1) = (   1.000000   0.000000   0.000000 )  
               a(2) = (  -0.333333   0.942809   0.000000 )  
               a(3) = (  -0.333333  -0.471405   0.816497 )  

     reciprocal axes: (cart. coord. in units 2 pi/alat)
               b(1) = (  1.000000  0.353553  0.612372 )  
               b(2) = ( -0.000000  1.060660  0.612373 )  
               b(3) = (  0.000000 -0.000000  1.224745 )  


     PseudoPot. # 1 for Mo read from file:
     ./../../../pseudo/psl100_PBE/Mo.pbe-spn-kjpaw_psl.1.0.0.UPF
     MD5 check sum: 803f23ad070261020ca85745571bcee2
     Pseudo is Projector augmented-wave + core cor, Zval = 14.0
     Generated using 'atomic' code by A. Dal Corso  v.7.2
     Shape of augmentation charge: PSQ
     Using radial grid of 1229 points,  6 beta functions with: 
                l(1) =   0
                l(2) =   0
                l(3) =   1
                l(4) =   1
                l(5) =   2
                l(6) =   2
     Q(r) pseudized with 0 coefficients 


     atomic species   valence    mass     pseudopotential
        Mo            14.00    95.96000     Mo( 1.00)

      4 Sym. Ops., with inversion, found



   Cartesian axes

     site n.     atom                  positions (alat units)
         1           Mo  tau(   1) = (   0.0000000   0.0000000   0.0000000  )

     number of k points=    81  Methfessel-Paxton smearing, width (Ry)=  0.0200
                       cart. coord. in units 2pi/alat
        k(    1) = (   0.2500000   0.3535534   0.6123725), wk =   0.0246914
        k(    2) = (   0.2250000   0.3181981   0.6123725), wk =   0.0246914
        k(    3) = (   0.2000000   0.2828427   0.6123725), wk =   0.0246914
        k(    4) = (   0.1750000   0.2474874   0.6123725), wk =   0.0246914
        k(    5) = (   0.1500000   0.2121320   0.6123725), wk =   0.0246914
        k(    6) = (   0.1250000   0.1767767   0.6123725), wk =   0.0246914
        k(    7) = (   0.1000000   0.1414214   0.6123725), wk =   0.0246914
        k(    8) = (   0.0750000   0.1060660   0.6123725), wk =   0.0246914
        k(    9) = (   0.0500000   0.0707107   0.6123725), wk =   0.0246914
        k(   10) = (   0.0250000   0.0353553   0.6123725), wk =   0.0246914
        k(   11) = (   0.0000000   0.0000000   0.6123725), wk =   0.0246914
        k(   12) = (   0.0000000   0.0000000   0.5511352), wk =   0.0246914
        k(   13) = (   0.0000000   0.0000000   0.4898980), wk =   0.0246914
        k(   14) = (   0.0000000   0.0000000   0.4286607), wk =   0.0246914
        k(   15) = (   0.0000000   0.0000000   0.3674235), wk =   0.0246914
        k(   16) = (   0.0000000   0.0000000   0.3061862), wk =   0.0246914
        k(   17) = (   0.0000000   0.0000000   0.2449490), wk =   0.0246914
        k(   18) = (   0.0000000   0.0000000   0.1837117), wk =   0.0246914
        k(   19) = (   0.0000000   0.0000000   0.1224745), wk =   0.0246914
        k(   20) = (   0.0000000   0.0000000   0.0612372), wk =   0.0246914
        k(   21) = (   0.0000000   0.0000000   0.0000000), wk =   0.0246914
        k(   22) = (  -0.0250000   0.0176777   0.0306186), wk =   0.0246914
        k(   23) = (  -0.0500000   0.0353553   0.0612372), wk =   0.0246914
        k(   24) = (  -0.0750000   0.0530330   0.0918559), wk =   0.0246914
        k(   25) = (  -0.1000000   0.0707107   0.1224745), wk =   0.0246914
        k(   26) = (  -0.1250000   0.0883883   0.1530931), wk =   0.0246914
        k(   27) = (  -0.1500000   0.1060660   0.1837117), wk =   0.0246914
        k(   28) = (  -0.1750000   0.1237437   0.2143304), wk =   0.0246914
        k(   29) = (  -0.2000000   0.1414214   0.2449490), wk =   0.0246914
        k(   30) = (  -0.2250000   0.1590990   0.2755676), wk =   0.0246914
        k(   31) = (  -0.2500000   0.1767767   0.3061862), wk =   0.0246914
        k(   32) = (  -0.2750000   0.1944544   0.3368049), wk =   0.0246914
        k(   33) = (  -0.3000000   0.2121320   0.3674235), wk =   0.0246914
        k(   34) = (  -0.3250000   0.2298097   0.3980421), wk =   0.0246914
        k(   35) = (  -0.3500000   0.2474874   0.4286607), wk =   0.0246914
        k(   36) = (  -0.3750000   0.2651650   0.4592794), wk =   0.0246914
        k(   37) = (  -0.4000000   0.2828427   0.4898980), wk =   0.0246914
        k(   38) = (  -0.4250000   0.3005204   0.5205166), wk =   0.0246914
        k(   39) = (  -0.4500000   0.3181981   0.5511352), wk =   0.0246914
        k(   40) = (  -0.4750000   0.3358757   0.5817539), wk =   0.0246914
        k(   41) = (  -0.5000000   0.3535534   0.6123725), wk =   0.0246914
        k(   42) = (  -0.4625000   0.3535534   0.6123725), wk =   0.0246914
        k(   43) = (  -0.4250000   0.3535534   0.6123725), wk =   0.0246914
        k(   44) = (  -0.3875000   0.3535534   0.6123725), wk =   0.0246914
        k(   45) = (  -0.3500000   0.3535534   0.6123725), wk =   0.0246914
        k(   46) = (  -0.3125000   0.3535534   0.6123725), wk =   0.0246914
        k(   47) = (  -0.2750000   0.3535534   0.6123725), wk =   0.0246914
        k(   48) = (  -0.2375000   0.3535534   0.6123725), wk =   0.0246914
        k(   49) = (  -0.2000000   0.3535534   0.6123725), wk =   0.0246914
        k(   50) = (  -0.1625000   0.3535534   0.6123725), wk =   0.0246914
        k(   51) = (  -0.1250000   0.3535534   0.6123725), wk =   0.0246914
        k(   52) = (  -0.0875000   0.3535534   0.6123725), wk =   0.0246914
        k(   53) = (  -0.0500000   0.3535534   0.6123725), wk =   0.0246914
        k(   54) = (  -0.0125000   0.3535534   0.6123725), wk =   0.0246914
        k(   55) = (   0.0250000   0.3535534   0.6123725), wk =   0.0246914
        k(   56) = (   0.0625000   0.3535534   0.6123725), wk =   0.0246914
        k(   57) = (   0.1000000   0.3535534   0.6123725), wk =   0.0246914
        k(   58) = (   0.1375000   0.3535534   0.6123725), wk =   0.0246914
        k(   59) = (   0.1750000   0.3535534   0.6123725), wk =   0.0246914
        k(   60) = (   0.2125000   0.3535534   0.6123725), wk =   0.0246914
        k(   61) = (   0.2500000   0.3535534   0.6123725), wk =   0.0246914
        k(   62) = (   0.2250000   0.3181981   0.5511352), wk =   0.0246914
        k(   63) = (   0.2000000   0.2828427   0.4898980), wk =   0.0246914
        k(   64) = (   0.1750000   0.2474874   0.4286607), wk =   0.0246914
        k(   65) = (   0.1500000   0.2121320   0.3674235), wk =   0.0246914
        k(   66) = (   0.1250000   0.1767767   0.3061862), wk =   0.0246914
        k(   67) = (   0.1000000   0.1414214   0.2449490), wk =   0.0246914
        k(   68) = (   0.0750000   0.1060660   0.1837117), wk =   0.0246914
        k(   69) = (   0.0500000   0.0707107   0.1224745), wk =   0.0246914
        k(   70) = (   0.0250000   0.0353553   0.0612372), wk =   0.0246914
        k(   71) = (   0.0000000   0.0000000   0.0000000), wk =   0.0246914
        k(   72) = (   0.0000000   0.0000000   0.0612372), wk =   0.0246914
        k(   73) = (   0.0000000   0.0000000   0.1224745), wk =   0.0246914
        k(   74) = (   0.0000000   0.0000000   0.1837117), wk =   0.0246914
        k(   75) = (   0.0000000   0.0000000   0.2449490), wk =   0.0246914
        k(   76) = (   0.0000000   0.0000000   0.3061862), wk =   0.0246914
        k(   77) = (   0.0000000   0.0000000   0.3674235), wk =   0.0246914
        k(   78) = (   0.0000000   0.0000000   0.4286607), wk =   0.0246914
        k(   79) = (   0.0000000   0.0000000   0.4898980), wk =   0.0246914
        k(   80) = (   0.0000000   0.0000000   0.5511352), wk =   0.0246914
        k(   81) = (   0.0000000   0.0000000   0.6123725), wk =   0.0246914

     Dense  grid:     9693 G-vectors     FFT dimensions: (  30,  30,  30)

     Smooth grid:     4921 G-vectors     FFT dimensions: (  24,  24,  24)

     Estimated max dynamical RAM per process >       4.51 MB

     Estimated total dynamical RAM >      45.12 MB

     The potential is recalculated from file :
     ./work/POSCAR.save/charge-density

     Starting wfcs are   10 randomized atomic wfcs +    1 random wfcs
     Checking if some PAW data can be deallocated... 

     Band Structure Calculation
     Davidson diagonalization with overlap

     ethr =  5.21E-07,  avg # of iterations = 10.6

     total cpu time spent up to now is        1.8 secs

     End of band structure calculation

          k = 0.2500 0.3536 0.6124 (   604 PWs)   bands (ev):

   -40.0912 -14.3368 -14.3368 -14.3367  18.3517  18.3517  18.3517  23.3226
    23.3226  30.4134  32.3151

          k = 0.2250 0.3182 0.6124 (   622 PWs)   bands (ev):

   -40.0925 -14.4400 -14.3314 -14.2338  18.1136  18.2710  18.6443  23.3010
    23.3196  30.4456  31.6081

          k = 0.2000 0.2828 0.6124 (   630 PWs)   bands (ev):

   -40.0943 -14.5405 -14.3141 -14.1335  17.9280  18.0433  18.9915  23.2397
    23.3110  30.5498  30.8469

          k = 0.1750 0.2475 0.6124 (   628 PWs)   bands (ev):

   -40.0963 -14.6356 -14.2870 -14.0377  17.7070  17.7915  19.3915  23.1480
    23.2976  30.0550  30.7319

          k = 0.1500 0.2121 0.6124 (   620 PWs)   bands (ev):

   -40.0986 -14.7231 -14.2526 -13.9492  17.3099  17.6989  19.8407  23.0383
    23.2809  29.2501  30.9813

          k = 0.1250 0.1768 0.6124 (   616 PWs)   bands (ev):

   -40.1013 -14.8011 -14.2144 -13.8703  16.8988  17.6431  20.3329  22.9233
    23.2624  28.4474  31.2741

          k = 0.1000 0.1414 0.6124 (   620 PWs)   bands (ev):

   -40.1044 -14.8678 -14.1762 -13.8029  16.5132  17.6159  20.8574  22.8143
    23.2440  27.6633  31.5801

          k = 0.0750 0.1061 0.6124 (   620 PWs)   bands (ev):

   -40.1071 -14.9211 -14.1416 -13.7487  16.1838  17.6081  21.3954  22.7207
    23.2275  26.9204  31.8670

          k = 0.0500 0.0707 0.6124 (   616 PWs)   bands (ev):

   -40.1090 -14.9602 -14.1137 -13.7089  15.9333  17.6108  21.9095  22.6492
    23.2145  26.2584  32.1022

          k = 0.0250 0.0354 0.6124 (   620 PWs)   bands (ev):

   -40.1106 -14.9841 -14.0960 -13.6847  15.7770  17.6160  22.3210  22.6045
    23.2062  25.7576  32.2570

          k = 0.0000 0.0000 0.6124 (   614 PWs)   bands (ev):

   -40.1107 -14.9920 -14.0896 -13.6766  15.7240  17.6183  22.4897  22.5893
    23.2033  25.5590  32.3111

          k = 0.0000 0.0000 0.5511 (   622 PWs)   bands (ev):

   -40.1173 -14.9617 -14.0798 -13.6764  15.7640  17.6581  22.0768  22.6847
    23.1701  25.3186  32.6399

          k = 0.0000 0.0000 0.4899 (   622 PWs)   bands (ev):

   -40.1352 -14.8728 -14.0506 -13.6756  15.8677  17.7754  21.3316  22.6121
    23.0809  24.6804  33.5107

          k = 0.0000 0.0000 0.4287 (   626 PWs)   bands (ev):

   -40.1631 -14.7328 -14.0050 -13.6745  15.9777  17.9640  20.4832  22.4341
    22.9605  23.8157  34.2339

          k = 0.0000 0.0000 0.3674 (   622 PWs)   bands (ev):

   -40.1977 -14.5534 -13.9469 -13.6731  15.9765  18.2127  19.7733  22.2260
    22.8366  22.8780  35.0297

          k = 0.0000 0.0000 0.3062 (   623 PWs)   bands (ev):

   -40.2360 -14.3512 -13.8819 -13.6713  15.7258  18.5047  19.4033  21.9725
    22.0543  22.7303  35.7916

          k = 0.0000 0.0000 0.2449 (   621 PWs)   bands (ev):

   -40.2739 -14.1446 -13.8161 -13.6698  15.2364  18.8167  19.3675  21.1664
    21.9839  22.6527  36.2826

          k = 0.0000 0.0000 0.1837 (   621 PWs)   bands (ev):

   -40.3080 -13.9546 -13.7561 -13.6683  14.6772  19.1183  19.4705  20.5031
    22.0617  22.6051  36.3624

          k = 0.0000 0.0000 0.1225 (   621 PWs)   bands (ev):

   -40.3349 -13.8011 -13.7081 -13.6672  14.1981  19.3737  19.5589  20.0112
    22.2653  22.5817  36.1822

          k = 0.0000 0.0000 0.0612 (   623 PWs)   bands (ev):

   -40.3522 -13.7009 -13.6771 -13.6666  13.8836  19.5462  19.5982  19.7092
    22.4802  22.5732  35.9817

          k = 0.0000 0.0000 0.0000 (   627 PWs)   bands (ev):

   -40.3583 -13.6664 -13.6664 -13.6664  13.7747  19.6073  19.6073  19.6073
    22.5714  22.5714  35.9011

          k =-0.0250 0.0177 0.0306 (   623 PWs)   bands (ev):

   -40.3551 -13.6784 -13.6718 -13.6718  13.8295  19.6035  19.6035  19.6313
    22.4991  22.5966  35.9588

          k =-0.0500 0.0354 0.0612 (   623 PWs)   bands (ev):

   -40.3463 -13.7140 -13.6879 -13.6879  13.9915  19.5942  19.5942  19.7030
    22.2893  22.6709  36.1239

          k =-0.0750 0.0530 0.0919 (   623 PWs)   bands (ev):

   -40.3319 -13.7710 -13.7142 -13.7142  14.2541  19.5855  19.5855  19.8218
    21.9605  22.7906  36.3790

          k =-0.1000 0.0707 0.1225 (   623 PWs)   bands (ev):

   -40.3125 -13.8448 -13.7505 -13.7505  14.6059  19.5863  19.5863  19.9865
    21.5382  22.9492  36.6998

          k =-0.1250 0.0884 0.1531 (   615 PWs)   bands (ev):

   -40.2882 -13.9309 -13.7958 -13.7958  15.0305  19.6069  19.6069  20.1955
    21.0495  23.1378  37.0633

          k =-0.1500 0.1061 0.1837 (   615 PWs)   bands (ev):

   -40.2606 -14.0244 -13.8492 -13.8492  15.5059  19.6578  19.6578  20.4465
    20.5194  23.3452  37.4500

          k =-0.1750 0.1237 0.2143 (   615 PWs)   bands (ev):

   -40.2301 -14.1203 -13.9093 -13.9093  16.0034  19.7486  19.7486  19.9693
    20.7367  23.5610  37.8461

          k =-0.2000 0.1414 0.2449 (   611 PWs)   bands (ev):

   -40.1975 -14.2132 -13.9749 -13.9749  16.4861  19.4169  19.8878  19.8878
    21.0623  23.7804  36.9223

          k =-0.2250 0.1591 0.2756 (   615 PWs)   bands (ev):

   -40.1644 -14.2997 -14.0444 -14.0443  16.9085  18.8761  20.0816  20.0816
    21.4190  24.0121  36.3686

          k =-0.2500 0.1768 0.3062 (   619 PWs)   bands (ev):

   -40.1311 -14.3761 -14.1160 -14.1160  17.2204  18.3579  20.3349  20.3349
    21.8010  24.2838  36.1200

          k =-0.2750 0.1945 0.3368 (   615 PWs)   bands (ev):

   -40.0983 -14.4402 -14.1881 -14.1880  17.3798  17.8709  20.6503  20.6503
    22.2016  24.6357  36.1671

          k =-0.3000 0.2121 0.3674 (   627 PWs)   bands (ev):

   -40.0678 -14.4916 -14.2588 -14.2588  17.3708  17.4219  21.0288  21.0288
    22.6126  25.1009  36.4756

          k =-0.3250 0.2298 0.3980 (   619 PWs)   bands (ev):

   -40.0387 -14.5295 -14.3262 -14.3261  17.0162  17.2127  21.4689  21.4689
    23.0241  25.6872  36.0035

          k =-0.3500 0.2475 0.4287 (   622 PWs)   bands (ev):

   -40.0129 -14.5559 -14.3886 -14.3886  16.6578  16.9506  21.9667  21.9667
    23.4247  26.3758  34.8139

          k =-0.3750 0.2652 0.4593 (   630 PWs)   bands (ev):

   -39.9908 -14.5724 -14.4445 -14.4445  16.3500  16.6377  22.5140  22.5140
    23.8011  27.1315  33.6555

          k =-0.4000 0.2828 0.4899 (   638 PWs)   bands (ev):

   -39.9723 -14.5807 -14.4925 -14.4925  16.0952  16.3218  23.0964  23.0964
    24.1390  27.9092  32.5588

          k =-0.4250 0.3005 0.5205 (   638 PWs)   bands (ev):

   -39.9574 -14.5837 -14.5311 -14.5311  15.8952  16.0406  23.6874  23.6874
    24.4231  28.6532  31.5600

          k =-0.4500 0.3182 0.5511 (   634 PWs)   bands (ev):

   -39.9464 -14.5839 -14.5592 -14.5592  15.7515  15.8216  24.2374  24.2374
    24.6389  29.2913  30.7150

          k =-0.4750 0.3359 0.5818 (   614 PWs)   bands (ev):

   -39.9389 -14.5825 -14.5761 -14.5761  15.6649  15.6832  24.6568  24.6568
    24.7740  29.7341  30.1174

          k =-0.5000 0.3536 0.6124 (   610 PWs)   bands (ev):

   -39.9365 -14.5819 -14.5819 -14.5819  15.6359  15.6359  24.8200  24.8200
    24.8200  29.8944  29.8944

          k =-0.4625 0.3536 0.6124 (   616 PWs)   bands (ev):

   -39.9385 -14.5831 -14.5831 -14.5716  15.6646  15.6646  24.6136  24.7821
    24.7821  29.9418  30.0135

          k =-0.4250 0.3536 0.6124 (   628 PWs)   bands (ev):

   -39.9439 -14.5867 -14.5867 -14.5405  15.7498  15.7498  24.0677  24.6742
    24.6742  30.0764  30.0764

          k =-0.3875 0.3536 0.6124 (   625 PWs)   bands (ev):

   -39.9515 -14.5919 -14.5919 -14.4897  15.8895  15.8895  23.3203  24.5114
    24.5114  30.2783  30.2783

          k =-0.3500 0.3536 0.6124 (   637 PWs)   bands (ev):

   -39.9623 -14.5989 -14.5989 -14.4227  16.0803  16.0803  22.4814  24.3123
    24.3123  30.5204  30.5204

          k =-0.3125 0.3536 0.6124 (   637 PWs)   bands (ev):

   -39.9747 -14.6063 -14.6063 -14.3427  16.3171  16.3171  21.6209  24.0946
    24.0946  30.7737  31.0997

          k =-0.2750 0.3536 0.6124 (   631 PWs)   bands (ev):

   -39.9883 -14.6135 -14.6135 -14.2542  16.5929  16.5929  20.7833  23.8734
    23.8734  31.0095  31.2138

          k =-0.2375 0.3536 0.6124 (   628 PWs)   bands (ev):

   -40.0030 -14.6200 -14.6200 -14.1622  16.8990  16.8990  19.9982  23.6609
    23.6609  31.2023  31.2602

          k =-0.2000 0.3536 0.6124 (   616 PWs)   bands (ev):

   -40.0174 -14.6247 -14.6247 -14.0720  17.2243  17.2243  19.2867  23.4671
    23.4671  31.2565  31.3329

          k =-0.1625 0.3536 0.6124 (   622 PWs)   bands (ev):

   -40.0323 -14.6268 -14.6268 -13.9901  17.5551  17.5551  18.6643  23.3005
    23.3005  31.2187  31.3932

          k =-0.1250 0.3536 0.6124 (   616 PWs)   bands (ev):

   -40.0458 -14.6254 -14.6254 -13.9206  17.8754  17.8754  18.1425  23.1686
    23.1686  31.1592  31.3884

          k =-0.0875 0.3536 0.6124 (   616 PWs)   bands (ev):

   -40.0581 -14.6199 -14.6199 -13.8688  17.7292  18.1677  18.1677  23.0773
    23.0773  31.0869  31.3366

          k =-0.0500 0.3536 0.6124 (   616 PWs)   bands (ev):

   -40.0687 -14.6096 -14.6096 -13.8383  17.4291  18.4143  18.4143  23.0301
    23.0301  31.0078  31.2645

          k =-0.0125 0.3536 0.6124 (   610 PWs)   bands (ev):

   -40.0770 -14.5938 -14.5938 -13.8315  17.2432  18.6009  18.6009  23.0261
    23.0261  30.9252  31.2017

          k = 0.0250 0.3536 0.6124 (   619 PWs)   bands (ev):

   -40.0839 -14.5730 -14.5730 -13.8494  17.1692  18.7195  18.7195  23.0583
    23.0583  30.8404  31.1754

          k = 0.0625 0.3536 0.6124 (   619 PWs)   bands (ev):

   -40.0884 -14.5463 -14.5463 -13.8911  17.2003  18.7700  18.7700  23.1141
    23.1141  30.7538  31.2061

          k = 0.1000 0.3536 0.6124 (   625 PWs)   bands (ev):

   -40.0914 -14.5141 -14.5141 -13.9545  17.3253  18.7595  18.7595  23.1785
    23.1785  30.6657  31.3054

          k = 0.1375 0.3536 0.6124 (   631 PWs)   bands (ev):

   -40.0929 -14.4766 -14.4766 -14.0360  17.5278  18.6993  18.6993  23.2384
    23.2384  30.5782  31.4754

          k = 0.1750 0.3536 0.6124 (   628 PWs)   bands (ev):

   -40.0930 -14.4341 -14.4341 -14.1306  17.7859  18.6027  18.6027  23.2847
    23.2847  30.4977  31.7090

          k = 0.2125 0.3536 0.6124 (   616 PWs)   bands (ev):

   -40.0921 -14.3871 -14.3871 -14.2328  18.0717  18.4827  18.4827  23.3131
    23.3131  30.4368  31.9937

          k = 0.2500 0.3536 0.6124 (   604 PWs)   bands (ev):

   -40.0912 -14.3368 -14.3368 -14.3367  18.3517  18.3517  18.3517  23.3226
    23.3226  30.4134  32.3151

          k = 0.2250 0.3182 0.5511 (   631 PWs)   bands (ev):

   -40.0948 -14.5296 -14.2295 -14.2295  18.1005  18.1005  18.7521  23.2863
    23.2863  30.3457  31.3059

          k = 0.2000 0.2828 0.4899 (   619 PWs)   bands (ev):

   -40.1037 -14.6660 -14.1183 -14.1183  17.9233  17.9233  18.7609  23.1813
    23.1813  29.1888  31.9654

          k = 0.1750 0.2475 0.4287 (   619 PWs)   bands (ev):

   -40.1237 -14.7190 -14.0111 -14.0111  17.8714  17.8714  18.3479  23.0158
    23.0159  27.5691  33.6585

          k = 0.1500 0.2121 0.3674 (   625 PWs)   bands (ev):

   -40.1552 -14.6753 -13.9146 -13.9146  17.6435  17.9713  17.9713  22.8091
    22.8091  25.8071  35.4466

          k = 0.1250 0.1768 0.3062 (   628 PWs)   bands (ev):

   -40.1960 -14.5399 -13.8330 -13.8330  16.7963  18.2208  18.2208  22.5956
    22.5956  24.0708  36.3507

          k = 0.1000 0.1414 0.2449 (   616 PWs)   bands (ev):

   -40.2411 -14.3351 -13.7684 -13.7684  15.9155  18.5840  18.5840  22.4236
    22.4236  22.5136  37.1120

          k = 0.0750 0.1061 0.1837 (   622 PWs)   bands (ev):

   -40.2863 -14.0995 -13.7213 -13.7213  15.0872  18.9864  18.9864  21.2477
    22.3455  22.3455  36.8855

          k = 0.0500 0.0707 0.1225 (   630 PWs)   bands (ev):

   -40.3244 -13.8797 -13.6899 -13.6899  14.3981  19.3293  19.3293  20.3335
    22.3900  22.3900  36.3389

          k = 0.0250 0.0354 0.0612 (   618 PWs)   bands (ev):

   -40.3490 -13.7229 -13.6720 -13.6720  13.9372  19.5399  19.5400  19.7879
    22.5076  22.5076  36.0107

          k = 0.0000 0.0000 0.0000 (   627 PWs)   bands (ev):

   -40.3583 -13.6664 -13.6664 -13.6664  13.7747  19.6073  19.6073  19.6073
    22.5714  22.5714  35.9011

          k = 0.0000 0.0000 0.0612 (   623 PWs)   bands (ev):

   -40.3522 -13.7009 -13.6771 -13.6666  13.8836  19.5462  19.5982  19.7092
    22.4802  22.5732  35.9817

          k = 0.0000 0.0000 0.1225 (   621 PWs)   bands (ev):

   -40.3349 -13.8011 -13.7081 -13.6672  14.1981  19.3737  19.5589  20.0112
    22.2653  22.5817  36.1822

          k = 0.0000 0.0000 0.1837 (   621 PWs)   bands (ev):

   -40.3080 -13.9546 -13.7561 -13.6683  14.6772  19.1183  19.4705  20.5031
    22.0617  22.6051  36.3624

          k = 0.0000 0.0000 0.2449 (   621 PWs)   bands (ev):

   -40.2739 -14.1446 -13.8161 -13.6698  15.2364  18.8167  19.3675  21.1664
    21.9839  22.6527  36.2826

          k = 0.0000 0.0000 0.3062 (   623 PWs)   bands (ev):

   -40.2360 -14.3512 -13.8819 -13.6713  15.7258  18.5047  19.4033  21.9725
    22.0543  22.7303  35.7916

          k = 0.0000 0.0000 0.3674 (   622 PWs)   bands (ev):

   -40.1977 -14.5534 -13.9469 -13.6731  15.9765  18.2127  19.7733  22.2260
    22.8366  22.8780  35.0297

          k = 0.0000 0.0000 0.4287 (   626 PWs)   bands (ev):

   -40.1631 -14.7328 -14.0050 -13.6745  15.9777  17.9640  20.4832  22.4341
    22.9605  23.8157  34.2339

          k = 0.0000 0.0000 0.4899 (   622 PWs)   bands (ev):

   -40.1352 -14.8728 -14.0506 -13.6756  15.8677  17.7754  21.3316  22.6121
    23.0809  24.6804  33.5107

          k = 0.0000 0.0000 0.5511 (   622 PWs)   bands (ev):

   -40.1173 -14.9617 -14.0798 -13.6764  15.7640  17.6581  22.0768  22.6847
    23.1701  25.3186  32.6399

          k = 0.0000 0.0000 0.6124 (   614 PWs)   bands (ev):

   -40.1107 -14.9920 -14.0896 -13.6766  15.7240  17.6183  22.4897  22.5893
    23.2033  25.5590  32.3111

     Writing all to output data dir ./work/POSCAR.save/

     init_run     :      0.38s CPU      0.39s WALL (       1 calls)
     electrons    :      0.53s CPU      0.65s WALL (       1 calls)

     Called by init_run:
     wfcinit      :      0.00s CPU      0.01s WALL (       1 calls)
     potinit      :      0.17s CPU      0.18s WALL (       1 calls)
     hinit0       :      0.16s CPU      0.16s WALL (       1 calls)

     Called by electrons:
     c_bands      :      0.53s CPU      0.65s WALL (       1 calls)
     v_of_rho     :      0.00s CPU      0.00s WALL (       1 calls)
     newd         :      0.01s CPU      0.01s WALL (       1 calls)
     PAW_pot      :      0.04s CPU      0.04s WALL (       1 calls)

     Called by c_bands:
     init_us_2    :      0.00s CPU      0.00s WALL (      81 calls)
     init_us_2:cp :      0.00s CPU      0.00s WALL (      81 calls)
     cegterg      :      0.46s CPU      0.49s WALL (      81 calls)

     Called by *egterg:
     cdiaghg      :      0.11s CPU      0.12s WALL (     937 calls)
     h_psi        :      0.33s CPU      0.35s WALL (    1018 calls)
     s_psi        :      0.01s CPU      0.01s WALL (    1018 calls)
     g_psi        :      0.00s CPU      0.00s WALL (     856 calls)

     Called by h_psi:
     h_psi:calbec :      0.02s CPU      0.02s WALL (    1018 calls)
     vloc_psi     :      0.30s CPU      0.32s WALL (    1018 calls)
     add_vuspsi   :      0.01s CPU      0.01s WALL (    1018 calls)

     General routines
     calbec       :      0.02s CPU      0.02s WALL (    1018 calls)
     fft          :      0.11s CPU      0.11s WALL (      13 calls)
     ffts         :      0.13s CPU      0.13s WALL (       1 calls)
     fftw         :      0.27s CPU      0.29s WALL (   12794 calls)
     interpolate  :      0.13s CPU      0.13s WALL (       1 calls)
     davcio       :      0.00s CPU      0.03s WALL (     162 calls)

     Parallel routines

     PWSCF        :      1.57s CPU      2.27s WALL


   This run was terminated on:  16: 6:41  18May2024            

=------------------------------------------------------------------------------=
   JOB DONE.
=------------------------------------------------------------------------------=
