
     Program PWSCF v.7.1 starts on 18May2024 at 16: 6:19 

     This program is part of the open-source Quantum ESPRESSO suite
     for quantum simulation of materials; please cite
         "P. Giannozzi et al., J. Phys.:Condens. Matter 21 395502 (2009);
         "P. Giannozzi et al., J. Phys.:Condens. Matter 29 465901 (2017);
         "P. Giannozzi et al., J. Chem. Phys. 152 154105 (2020);
          URL http://www.quantum-espresso.org", 
     in publications or presentations arising from this work. More details at
     http://www.quantum-espresso.org/quote

     Parallel version (MPI & OpenMP), running on      10 processor cores
     Number of MPI processes:                10
     Threads/MPI process:                     1

     MPI processes distributed on     1 nodes
     14317 MiB available memory on the printing compute node when the environment starts

     Waiting for input...
     Reading input from standard input

     Current dimensions of program PWSCF are:
     Max number of different atomic species (ntypx) = 10
     Max number of k-points (npk) =  40000
     Max angular momentum in pseudopotentials (lmaxx) =  4
     file Mo.pbe-spn-kjpaw_psl.1.0.0.UPF: wavefunction(s)  4S 4D renormalized
     Message from routine setup:
     using ibrav=0 with symmetry is DISCOURAGED, use correct ibrav instead

     R & G space division:  proc/nbgrp/npool/nimage =      10
     Subspace diagonalization in iterative solution of the eigenvalue problem:
     a serial algorithm will be used


     Parallelization info
     --------------------
     sticks:   dense  smooth     PW     G-vecs:    dense   smooth      PW
     Min          61      39     15                  968      492     123
     Max          63      40     16                  970      493     126
     Sum         619     395    159                 9693     4921    1253

     Using Slab Decomposition



     bravais-lattice index     =            0
     lattice parameter (alat)  =       5.1840  a.u.
     unit-cell volume          =     107.2423 (a.u.)^3
     number of atoms/cell      =            1
     number of atomic types    =            1
     number of electrons       =        14.00
     number of Kohn-Sham states=           11
     kinetic-energy cutoff     =      49.0000  Ry
     charge density cutoff     =     306.0000  Ry
     scf convergence threshold =      7.3E-05
     mixing beta               =       0.7000
     number of iterations used =            8  plain     mixing
     Exchange-correlation= SLA  PW   PBX  PBC
                           (   1   4   3   4   0   0   0)

     celldm(1)=   5.183972  celldm(2)=   0.000000  celldm(3)=   0.000000
     celldm(4)=   0.000000  celldm(5)=   0.000000  celldm(6)=   0.000000

     crystal axes: (cart. coord. in units of alat)
               a(1) = (   1.000000   0.000000   0.000000 )  
               a(2) = (  -0.333333   0.942809   0.000000 )  
               a(3) = (  -0.333333  -0.471405   0.816497 )  

     reciprocal axes: (cart. coord. in units 2 pi/alat)
               b(1) = (  1.000000  0.353553  0.612372 )  
               b(2) = ( -0.000000  1.060660  0.612373 )  
               b(3) = (  0.000000 -0.000000  1.224745 )  


     PseudoPot. # 1 for Mo read from file:
     ./../../../pseudo/psl100_PBE/Mo.pbe-spn-kjpaw_psl.1.0.0.UPF
     MD5 check sum: 803f23ad070261020ca85745571bcee2
     Pseudo is Projector augmented-wave + core cor, Zval = 14.0
     Generated using 'atomic' code by A. Dal Corso  v.7.2
     Shape of augmentation charge: PSQ
     Using radial grid of 1229 points,  6 beta functions with: 
                l(1) =   0
                l(2) =   0
                l(3) =   1
                l(4) =   1
                l(5) =   2
                l(6) =   2
     Q(r) pseudized with 0 coefficients 


     atomic species   valence    mass     pseudopotential
        Mo            14.00    95.96000     Mo( 1.00)

      4 Sym. Ops., with inversion, found



   Cartesian axes

     site n.     atom                  positions (alat units)
         1           Mo  tau(   1) = (   0.0000000   0.0000000   0.0000000  )

     number of k points=   744  Methfessel-Paxton smearing, width (Ry)=  0.0200

     Number of k-points >= 100: set verbosity='high' to print them.

     Dense  grid:     9693 G-vectors     FFT dimensions: (  30,  30,  30)

     Smooth grid:     4921 G-vectors     FFT dimensions: (  24,  24,  24)

     Estimated max dynamical RAM per process >      12.53 MB

     Estimated total dynamical RAM >     125.27 MB

     Initial potential from superposition of free atoms

     starting charge      13.9991, renormalised to      14.0000
     Starting wfcs are   10 randomized atomic wfcs +    1 random wfcs
     Checking if some PAW data can be deallocated... 

     total cpu time spent up to now is        1.1 secs

     per-process dynamical memory:    19.9 Mb

     Self-consistent Calculation

     iteration #  1     ecut=    49.00 Ry     beta= 0.70
     Davidson diagonalization with overlap
     ethr =  1.00E-02,  avg # of iterations =  3.3

     Threshold (ethr) on eigenvalues was too large:
     Diagonalizing with lowered threshold

     Davidson diagonalization with overlap
     ethr =  2.66E-04,  avg # of iterations =  1.8

     total cpu time spent up to now is        6.9 secs

     total energy              =    -363.90100262 Ry
     estimated scf accuracy    <       0.03960160 Ry

     iteration #  2     ecut=    49.00 Ry     beta= 0.70
     Davidson diagonalization with overlap
     ethr =  2.83E-04,  avg # of iterations =  2.0

     total cpu time spent up to now is        9.8 secs

     total energy              =    -363.91053225 Ry
     estimated scf accuracy    <       0.00476616 Ry

     iteration #  3     ecut=    49.00 Ry     beta= 0.70
     Davidson diagonalization with overlap
     ethr =  3.40E-05,  avg # of iterations =  2.5

     total cpu time spent up to now is       12.7 secs

     total energy              =    -363.91163888 Ry
     estimated scf accuracy    <       0.00012483 Ry

     iteration #  4     ecut=    49.00 Ry     beta= 0.70
     Davidson diagonalization with overlap
     ethr =  8.92E-07,  avg # of iterations =  2.7

     total cpu time spent up to now is       15.7 secs

     End of self-consistent calculation

     Number of k-points >= 100: set verbosity='high' to print the bands.

     the Fermi energy is    20.9877 ev

!    total energy              =    -363.91164771 Ry
     total all-electron energy =     -8098.039617 Ry
     estimated scf accuracy    <       0.00000098 Ry
     smearing contrib. (-TS)   =      -0.00040085 Ry
     internal energy E=F+TS    =    -363.91124686 Ry

     The total energy is F=E-TS. E is the sum of the following terms:
     one-electron contribution =     -15.90206946 Ry
     hartree contribution      =      17.98172893 Ry
     xc contribution           =     -19.45537746 Ry
     ewald contribution        =    -119.16094925 Ry
     one-center paw contrib.   =    -227.37457962 Ry

     convergence has been achieved in   4 iterations

     Writing all to output data dir ./work/POSCAR.save/

     init_run     :      0.81s CPU      0.88s WALL (       1 calls)
     electrons    :      9.16s CPU     14.58s WALL (       1 calls)

     Called by init_run:
     wfcinit      :      0.45s CPU      0.47s WALL (       1 calls)
     potinit      :      0.19s CPU      0.22s WALL (       1 calls)
     hinit0       :      0.16s CPU      0.17s WALL (       1 calls)

     Called by electrons:
     c_bands      :      7.86s CPU     13.20s WALL (       5 calls)
     sum_band     :      1.14s CPU      1.16s WALL (       5 calls)
     v_of_rho     :      0.01s CPU      0.01s WALL (       5 calls)
     newd         :      0.01s CPU      0.01s WALL (       5 calls)
     PAW_pot      :      0.19s CPU      0.25s WALL (       5 calls)
     mix_rho      :      0.00s CPU      0.00s WALL (       5 calls)

     Called by c_bands:
     init_us_2    :      0.13s CPU      0.13s WALL (    8184 calls)
     init_us_2:cp :      0.12s CPU      0.13s WALL (    8184 calls)
     cegterg      :      7.25s CPU      7.80s WALL (    3720 calls)

     Called by *egterg:
     cdiaghg      :      1.22s CPU      1.31s WALL (   12150 calls)
     h_psi        :      5.46s CPU      5.87s WALL (   13638 calls)
     s_psi        :      0.08s CPU      0.09s WALL (   13638 calls)
     g_psi        :      0.04s CPU      0.05s WALL (    9174 calls)

     Called by h_psi:
     h_psi:calbec :      0.27s CPU      0.29s WALL (   13638 calls)
     vloc_psi     :      5.06s CPU      5.44s WALL (   13638 calls)
     add_vuspsi   :      0.09s CPU      0.10s WALL (   13638 calls)

     General routines
     calbec       :      0.33s CPU      0.35s WALL (   17358 calls)
     fft          :      0.12s CPU      0.12s WALL (      64 calls)
     ffts         :      0.13s CPU      0.13s WALL (      10 calls)
     fftw         :      5.45s CPU      5.81s WALL (  253416 calls)
     interpolate  :      0.13s CPU      0.13s WALL (       5 calls)

     Parallel routines

     PWSCF        :     10.65s CPU     19.01s WALL


   This run was terminated on:  16: 6:38  18May2024            

=------------------------------------------------------------------------------=
   JOB DONE.
=------------------------------------------------------------------------------=
