#Generated by cif2cell 1.2.47.  :  Failed to get author information, No journal information.

2 atoms
1 atom types

0.0 3.658988 xlo xhi
0.0 3.168777 ylo yhi
0.0 5.665965 zlo zhi
-1.829493999999999 3.4694029506654665e-16 6.009182182481966e-16 xy xz yz

Masses

1 88.905 # Y

Atoms

1 1 0.0   0.000000000000001   2.112517706761611   1.416491250000000 
2 1 0.0   1.829494000000000   1.056258853380806   4.249473750000000 
